    2    2  200    1
  0.4000000E+04  0.2000000E-08  0.2000000E-08  0.2000000E-08  0.5000000E-15
  1.000000000000000E-004
  CAR 
 unknown system                          
    2    1   20
 
  0.0000000E+00  0.0000000E+00  0.0000000E+00  0.1000000E+01
   1      -10.325854
   2       -0.055077
   3        0.157172
   4        0.251635
   5        0.316377
   6        0.317057
   7        0.341472
   8        0.345230
   9        0.446713
  10        0.607191
  11        0.608125
  12        0.643213
  13        0.708208
  14        0.709412
  15        0.728755
  16        0.728848
  17        0.731064
  18        0.732437
  19        0.732643
  20        0.734483
