 vasp.5.3.2 13Sep12 (build Oct  1 2014 13:46:58) complex                        
  
 executed on             LinuxIFC date 2015.11.22  18:50:12
 running on   20 total cores
 distrk:  each k-point on   20 cores,    1 groups
 distr:  one band on NCORES_PER_BAND=   1 cores,   20 groups


--------------------------------------------------------------------------------------------------------


 INCAR:
 POTCAR:    PAW_PBE H 15Jun2001                   

 ----------------------------------------------------------------------------- 
|                                                                             |
|           W    W    AA    RRRRR   N    N  II  N    N   GGGG   !!!           |
|           W    W   A  A   R    R  NN   N  II  NN   N  G    G  !!!           |
|           W    W  A    A  R    R  N N  N  II  N N  N  G       !!!           |
|           W WW W  AAAAAA  RRRRR   N  N N  II  N  N N  G  GGG   !            |
|           WW  WW  A    A  R   R   N   NN  II  N   NN  G    G                |
|           W    W  A    A  R    R  N    N  II  N    N   GGGG   !!!           |
|                                                                             |
|      For optimal performance we recommend that you set                      |
|        NPAR = 4 - approx SQRT( number of cores)                             |
|      (number of cores/NPAR must be integer)                                 |
|      This setting will greatly improve the performance of VASP for DFT.     |
|      The default NPAR=number of cores might be grossly inefficient          |
|      on modern multi-core architectures or massively parallel machines.     |
|      Do your own testing.                                                   |
|      Unfortunately you need to use the default for hybrid, GW and RPA       |
|      calculations.                                                          |
|                                                                             |
 ----------------------------------------------------------------------------- 

 POTCAR:    PAW_PBE H 15Jun2001                   
  local pseudopotential read in
  atomic valenz-charges read in
  non local Contribution for L=           0  read in
    real space projection operators read in
  non local Contribution for L=           0  read in
    real space projection operators read in
  non local Contribution for L=           1  read in
    real space projection operators read in
    PAW grid and wavefunctions read in
 
   number of l-projection  operators is LMAX  =           3
   number of lm-projection operators is LMMAX =           5
 

 ----------------------------------------------------------------------------- 
|                                                                             |
|  ADVICE TO THIS USER RUNNING 'VASP/VAMP'   (HEAR YOUR MASTER'S VOICE ...):  |
|                                                                             |
|      You have a (more or less) 'small supercell' and for smaller cells      |
|      it is recommended  to use the reciprocal-space projection scheme!      |
|      The real space optimization is not  efficient for small cells and it   |
|      is also less accurate ...                                              |
|      Therefore set LREAL=.FALSE. in the  INCAR file                         |
|                                                                             |
 ----------------------------------------------------------------------------- 

 Optimization of the real space projectors (new method)

 maximal supplied QI-value         = 34.20
 optimisation between [QCUT,QGAM] = [  9.92, 20.18] = [ 27.55,114.04] Ry 
 Optimized for a Real-space Cutoff    1.34 Angstroem

   l    n(q)    QCUT    max X(q) W(low)/X(q) W(high)/X(q)  e(spline) 
   0      8     9.919    19.460    0.16E-03    0.20E-03    0.36E-06
   0      8     9.919    12.209    0.16E-03    0.20E-03    0.35E-06
   1      8     9.919     4.655    0.19E-03    0.46E-03    0.40E-06
  PAW_PBE H 15Jun2001                   :
 energy of atom  1       EATOM=  -12.4884
 kinetic energy error for atom=    0.0098 (will be added to EATOM!!)
 
 
 POSCAR: H                                       
  positions in direct lattice
  velocities in cartesian coordinates
 exchange correlation table for  LEXCH =        8
   RHO(1)=    0.500       N(1)  =     2000
   RHO(2)=  100.500       N(2)  =     4000

 VTST: version 3.0, (09/19/12)

 CHAIN: initializing optimizer
 
 OPT: Using VASP QUASI-newton optimizer
 CHAIN: Read ICHAIN            0
 
 POSCAR: H                                       
  positions in direct lattice
  velocities in cartesian coordinates
 


--------------------------------------------------------------------------------------------------------


 ion  position               nearest neighbor table
   1  0.416  0.559  0.603-   2 0.75
   2  0.411  0.522  0.603-   1 0.75
 

IMPORTANT INFORMATION: All symmetrisations will be switched off!
NOSYMM: (Re-)initialisation of all symmetry stuff for point group C_1.

 
 
 KPOINTS: K-Point Grid. Created by Vassili Vorotni

Automatic generation of k-mesh.
Space group operators:
 irot       det(A)        alpha          n_x          n_y          n_z        tau_x        tau_y        tau_z
    1     1.000000     0.000001     1.000000     0.000000     0.000000     0.000000     0.000000     0.000000
 
 Subroutine IBZKPT returns following result:
 ===========================================
 
 Found      1 irreducible k-points:
 
 Following reciprocal coordinates:
            Coordinates               Weight
  0.000000  0.000000  0.000000      1.000000
 
 Following cartesian coordinates:
            Coordinates               Weight
  0.000000  0.000000  0.000000      1.000000
 


--------------------------------------------------------------------------------------------------------




 Dimension of arrays:
   k-points           NKPTS =      1   k-points in BZ     NKDIM =      1   number of bands    NBANDS=     20
   number of dos      NEDOS =    301   number of ions     NIONS =      2
   non local maximal  LDIM  =      3   non local SUM 2l+1 LMDIM =      5
   total plane-waves  NPLWV = 941192
   max r-space proj   IRMAX =   1236   max aug-charges    IRDMAX=    408
   dimension x,y,z NGX =    98 NGY =   98 NGZ =   98
   dimension x,y,z NGXF=   140 NGYF=  140 NGZF=  140
   support grid    NGXF=   140 NGYF=  140 NGZF=  140
   ions per type =               2
 NGX,Y,Z   is equivalent  to a cutoff of   8.15,  8.15,  8.15 a.u.
 NGXF,Y,Z  is equivalent  to a cutoff of  11.64, 11.64, 11.64 a.u.


 I would recommend the setting:
   dimension x,y,z NGX =    98 NGY =   98 NGZ =   98
 SYSTEM =  unknown system                          
 POSCAR =  H                                       

 Startparameter for this run:
   NWRITE =      1    write-flag & timer
   PREC   = med       normal or accurate (medium, high low for compatibility)
   ISTART =      0    job   : 0-new  1-cont  2-samecut
   ICHARG =      2    charge: 1-file 2-atom 10-const
   ISPIN  =      1    spin polarized calculation?
   LNONCOLLINEAR =      F non collinear calculations
   LSORBIT =      F    spin-orbit coupling
   INIWAV =      1    electr: 0-lowe 1-rand  2-diag
   LASPH  =      F    aspherical Exc in radial PAW
   METAGGA=      F    non-selfconsistent MetaGGA calc.

 Electronic Relaxation 1
   ENCUT  =  400.0 eV  29.40 Ry    5.42 a.u.  32.61 32.61 32.61*2*pi/ulx,y,z
   ENINI  =  400.0     initial cutoff
   ENAUG  =  400.0 eV  augmentation charge cutoff
   NELM   =    400;   NELMIN=  2; NELMDL=-10     # of ELM steps 
   EDIFF  = 0.1E-05   stopping-criterion for ELM
   LREAL  =      T    real-space projection
   NLSPLINE    = F    spline interpolate recip. space projectors
   LCOMPAT=      F    compatible to vasp.4.4
   GGA_COMPAT  = T    GGA compatible to vasp.4.4-vasp.4.6
   LMAXPAW     = -100 max onsite density
   LMAXMIX     =    2 max onsite mixed and CHGCAR
   VOSKOWN=      1    Vosko Wilk Nusair interpolation
   ROPT   =   -0.00020
 Ionic relaxation
   EDIFFG = -.1E-01   stopping-criterion for IOM
   NSW    =    200    number of steps for IOM
   NBLOCK =      1;   KBLOCK =    200    inner block; outer block 
   IBRION =      1    ionic relax: 0-MD 1-quasi-New 2-CG
   NFREE  =      2    steps in history (QN), initial steepest desc. (CG)
   ISIF   =      2    stress and relaxation
   IWAVPR =     11    prediction:  0-non 1-charg 2-wave 3-comb
   ISYM   =      0    0-nonsym 1-usesym 2-fastsym
   LCORR  =      T    Harris-Foulkes like correction to forces

   POTIM  = 0.5000    time-step for ionic-motion
   TEIN   =    0.0    initial temperature
   TEBEG  =    0.0;   TEEND  =   0.0 temperature during run
   SMASS  =  -3.00    Nose mass-parameter (am)
   estimated Nose-frequenzy (Omega)   =  0.10E-29 period in steps =****** mass=  -0.914E-26a.u.
   SCALEE = 1.0000    scale energy and forces
   NPACO  =    256;   APACO  = 16.0  distance and # of slots for P.C.
   PSTRESS=    0.0 pullay stress

  Mass of Ions in am
   POMASS =   1.00
  Ionic Valenz
   ZVAL   =   1.00
  Atomic Wigner-Seitz radii
   RWIGS  =  -1.00
  virtual crystal weights 
   VCA    =   1.00
   NELECT =       2.0000    total number of electrons
   NUPDOWN=      -1.0000    fix difference up-down

 DOS related values:
   EMIN   =  10.00;   EMAX   =-10.00  energy-range for DOS
   EFERMI =   0.00
   ISMEAR =     1;   SIGMA  =   0.01  broadening in eV -4-tet -1-fermi 0-gaus

 Electronic relaxation 2 (details)
   IALGO  =     68    algorithm
   LDIAG  =      T    sub-space diagonalisation (order eigenvalues)
   LSUBROT=      T    optimize rotation matrix (better conditioning)
   TURBO    =      0    0=normal 1=particle mesh
   IRESTART =      0    0=no restart 2=restart with 2 vectors
   NREBOOT  =      0    no. of reboots
   NMIN     =      0    reboot dimension
   EREF     =   0.00    reference energy to select bands
   IMIX   =      4    mixing-type and parameters
     AMIX     =   0.40;   BMIX     =  1.00
     AMIX_MAG =   1.60;   BMIX_MAG =  1.00
     AMIN     =   0.10
     WC   =   100.;   INIMIX=   1;  MIXPRE=   1;  MAXMIX= -45

 Intra band minimization:
   WEIMIN = 0.0010     energy-eigenvalue tresh-hold
   EBREAK =  0.12E-07  absolut break condition
   DEPER  =   0.30     relativ break condition  

   TIME   =   0.40     timestep for ELM

  volume/ion in A,a.u.               =    4000.00     26993.33
  Fermi-wavevector in a.u.,A,eV,Ry     =   0.103131  0.194889  0.144711  0.010636
  Thomas-Fermi vector in A             =   0.684775
 
 Write flags
   LWAVE  =      F    write WAVECAR
   LCHARG =      F    write CHGCAR
   LVTOT  =      F    write LOCPOT, total local potential
   LVHAR  =      F    write LOCPOT, Hartree potential only
   LELF   =      F    write electronic localiz. function (ELF)
   LORBIT =      0    0 simple, 1 ext, 2 COOP (PROOUT)


 Dipole corrections
   LMONO  =      F    monopole corrections only (constant potential shift)
   LDIPOL =      F    correct potential (dipole corrections)
   IDIPOL =      0    1-x, 2-y, 3-z, 4-all directions 
   EPSILON=  1.0000000 bulk dielectric constant

 Exchange correlation treatment:
   GGA     =    --    GGA type
   LEXCH   =     8    internal setting for exchange type
   VOSKOWN=      1    Vosko Wilk Nusair interpolation
   LHFCALC =     F    Hartree Fock is set to
   LHFONE  =     F    Hartree Fock one center treatment
   AEXX    =    0.0000 exact exchange contribution

 Linear response parameters
   LEPSILON=     F    determine dielectric tensor
   LRPA    =     F    only Hartree local field effects (RPA)
   LNABLA  =     F    use nabla operator in PAW spheres
   LVEL    =     F    velocity operator in full k-point grid
   LINTERFAST=   F  fast interpolation
   KINTER  =     0    interpolate to denser k-point grid
   CSHIFT  =0.1000    complex shift for real part using Kramers Kronig
   OMEGAMAX=  -1.0    maximum frequency
   DEG_THRESHOLD= 0.2000000E-02 threshold for treating states as degnerate
   RTIME   =    0.100 relaxation time in fs

 Orbital magnetization related:
   ORBITALMAG=     F  switch on orbital magnetization
   LCHIMAG   =     F  perturbation theory with respect to B field
   DQ        =  0.001000  dq finite difference perturbation B field



--------------------------------------------------------------------------------------------------------


 quasi-Newton-method for relaxation of ions
   using selective dynamics as specified on POSCAR
 charge density and potential will be updated during run
 non-spin polarized calculation
 RMM-DIIS sequential band-by-band and
  variant of blocked Davidson during initial phase
 perform sub-space diagonalisation
    before iterative eigenvector-optimisation
 modified Broyden-mixing scheme, WC =      100.0
 initial mixing is a Kerker type mixing with AMIX =  0.4000 and BMIX =      1.0000
 Hartree-type preconditioning will be used
 using additional bands           19
 real space projection scheme for non local part
 calculate Harris-corrections to forces 
   (improved forces if not selfconsistent)
 use gradient corrections 
 use of overlap-Matrix (Vanderbilt PP)
 Methfessel and Paxton  Order N= 1 SIGMA  =   0.01


--------------------------------------------------------------------------------------------------------


  energy-cutoff  :      400.00
  volume of cell :     8000.00
      direct lattice vectors                 reciprocal lattice vectors
    16.329931619 -8.164965809 -8.164965809     0.040824829 -0.020412415 -0.020412415
     0.000000000 14.142135624-14.142135624     0.000000000  0.035355339 -0.035355339
    11.547005384 11.547005384 11.547005384     0.028867513  0.028867513  0.028867513

  length of vectors
    20.000000000 20.000000000 20.000000000     0.050000000  0.050000000  0.050000000


 
 k-points in units of 2pi/SCALE and weight: K-Point Grid. Created by Vassili Vorotni
   0.00000000  0.00000000  0.00000000       1.000
 
 k-points in reciprocal lattice and weights: K-Point Grid. Created by Vassili Vorotni
   0.00000000  0.00000000  0.00000000       1.000
 
 position of ions in fractional coordinates (direct lattice) 
   0.41550142  0.55908684  0.60273360
   0.41065358  0.52185383  0.60278278
 
 position of ions in cartesian coordinates  (Angst):
  13.74487795 11.47389513 -4.33946880
  13.66628083 10.98749120 -3.77276402
 


--------------------------------------------------------------------------------------------------------


 k-point  1 :   0.0000 0.0000 0.0000  plane waves:  145165

 maximum and minimum number of plane-waves per node :    145165   145165

 maximum number of plane-waves:    145165
 maximum index in each direction: 
   IXMAX=   32   IYMAX=   32   IZMAX=   32
   IXMIN=  -32   IYMIN=  -32   IZMIN=  -32

 WARNING: aliasing errors must be expected set NGX to 130 to avoid them
 WARNING: aliasing errors must be expected set NGY to 130 to avoid them
 WARNING: aliasing errors must be expected set NGZ to 130 to avoid them
 aliasing errors are usually negligible using standard VASP settings
 and one can safely disregard these warnings

 serial   3D FFT for wavefunctions
 parallel 3D FFT for charge:
    minimum data exchange during FFTs selected (reduces bandwidth)


 total amount of memory used by VASP on root node    85801. kBytes
========================================================================

   base      :      30000. kBytes
   nonlr-proj:        141. kBytes
   fftplans  :       8886. kBytes
   grid      :      44449. kBytes
   one-center:          2. kBytes
   wavefun   :       2323. kBytes
 
 Broyden mixing: mesh for mixing (old mesh)
   NGX = 65   NGY = 65   NGZ = 65
  (NGX  =140   NGY  =140   NGZ  =140)
  gives a total of 274625 points

 initial charge density was supplied:
 charge density of overlapping atoms calculated
 number of electron       2.0000000 magnetization 
 keeping initial charge density in first step


--------------------------------------------------------------------------------------------------------


 Maximum index for non-local projection operator         1158
 Maximum index for augmentation-charges           31 (set IRDMAX)


--------------------------------------------------------------------------------------------------------


 First call to EWALD:  gamma=   0.089
 Maximum number of real-space cells 3x 3x 3
 Maximum number of reciprocal cells 3x 3x 3

 FEWALD executed in parallel
    FEWALD:  cpu time    0.00: real time    0.00


----------------------------------------- Iteration    1(   1)  ---------------------------------------


    POTLOK:  cpu time    0.21: real time    0.21
    SETDIJ:  cpu time    0.00: real time    0.00
     EDDAV:  cpu time    0.94: real time    0.96
       DOS:  cpu time    0.00: real time    0.00
    --------------------------------------------
      LOOP:  cpu time    1.16: real time    1.19

 eigenvalue-minimisations  :    60
 total energy-change (2. order) :-0.2401577E+01  (-0.2739034E+02)
 number of electron       2.0000000 magnetization 
 augmentation part        2.0000000 magnetization 

 Free energy of the ion-electron system (eV)
  ---------------------------------------------------
  alpha Z        PSCENC =         0.00121808
  Ewald energy   TEWEN  =        15.09199948
  -1/2 Hartree   DENC   =       -24.58175898
  -exchange  EXHF       =         0.00000000
  -V(xc)+E(xc)   XCENC  =         4.34916635
  PAW double counting   =         4.26805487       -4.28581044
  entropy T*S    EENTRO =         0.00057979
  eigenvalues    EBANDS =       -22.20229108
  atomic energy  EATOM  =        24.95726533
  ---------------------------------------------------
  free energy    TOTEN  =        -2.40157660 eV

  energy without entropy =       -2.40215639  energy(sigma->0) =       -2.40176986


--------------------------------------------------------------------------------------------------------




----------------------------------------- Iteration    1(   2)  ---------------------------------------


     EDDAV:  cpu time    0.67: real time    0.67
       DOS:  cpu time    0.00: real time    0.00
    --------------------------------------------
      LOOP:  cpu time    0.67: real time    0.70

 eigenvalue-minimisations  :    40
 total energy-change (2. order) :-0.4954376E+01  (-0.4954376E+01)
 number of electron       2.0000000 magnetization 
 augmentation part        2.0000000 magnetization 

 Free energy of the ion-electron system (eV)
  ---------------------------------------------------
  alpha Z        PSCENC =         0.00121808
  Ewald energy   TEWEN  =        15.09199948
  -1/2 Hartree   DENC   =       -24.58175898
  -exchange  EXHF       =         0.00000000
  -V(xc)+E(xc)   XCENC  =         4.34916635
  PAW double counting   =         4.26805487       -4.28581044
  entropy T*S    EENTRO =         0.00057979
  eigenvalues    EBANDS =       -27.15666728
  atomic energy  EATOM  =        24.95726533
  ---------------------------------------------------
  free energy    TOTEN  =        -7.35595280 eV

  energy without entropy =       -7.35653259  energy(sigma->0) =       -7.35614606


--------------------------------------------------------------------------------------------------------




----------------------------------------- Iteration    1(   3)  ---------------------------------------


     EDDAV:  cpu time    0.93: real time    0.94
       DOS:  cpu time    0.00: real time    0.00
    --------------------------------------------
      LOOP:  cpu time    0.93: real time    0.96

 eigenvalue-minimisations  :    60
 total energy-change (2. order) :-0.7961107E-01  (-0.7961106E-01)
 number of electron       2.0000000 magnetization 
 augmentation part        2.0000000 magnetization 

 Free energy of the ion-electron system (eV)
  ---------------------------------------------------
  alpha Z        PSCENC =         0.00121808
  Ewald energy   TEWEN  =        15.09199948
  -1/2 Hartree   DENC   =       -24.58175898
  -exchange  EXHF       =         0.00000000
  -V(xc)+E(xc)   XCENC  =         4.34916635
  PAW double counting   =         4.26805487       -4.28581044
  entropy T*S    EENTRO =         0.00057979
  eigenvalues    EBANDS =       -27.23627835
  atomic energy  EATOM  =        24.95726533
  ---------------------------------------------------
  free energy    TOTEN  =        -7.43556386 eV

  energy without entropy =       -7.43614365  energy(sigma->0) =       -7.43575713


--------------------------------------------------------------------------------------------------------




----------------------------------------- Iteration    1(   4)  ---------------------------------------


     EDDAV:  cpu time    0.67: real time    0.68
       DOS:  cpu time    0.00: real time    0.00
    --------------------------------------------
      LOOP:  cpu time    0.68: real time    0.70

 eigenvalue-minimisations  :    40
 total energy-change (2. order) :-0.4066594E-04  (-0.4066717E-04)
 number of electron       2.0000000 magnetization 
 augmentation part        2.0000000 magnetization 

 Free energy of the ion-electron system (eV)
  ---------------------------------------------------
  alpha Z        PSCENC =         0.00121808
  Ewald energy   TEWEN  =        15.09199948
  -1/2 Hartree   DENC   =       -24.58175898
  -exchange  EXHF       =         0.00000000
  -V(xc)+E(xc)   XCENC  =         4.34916635
  PAW double counting   =         4.26805487       -4.28581044
  entropy T*S    EENTRO =         0.00057979
  eigenvalues    EBANDS =       -27.23631902
  atomic energy  EATOM  =        24.95726533
  ---------------------------------------------------
  free energy    TOTEN  =        -7.43560453 eV

  energy without entropy =       -7.43618432  energy(sigma->0) =       -7.43579779


--------------------------------------------------------------------------------------------------------




----------------------------------------- Iteration    1(   5)  ---------------------------------------


     EDDAV:  cpu time    1.18: real time    1.19
       DOS:  cpu time    0.00: real time    0.00
    --------------------------------------------
      LOOP:  cpu time    1.19: real time    1.21

 eigenvalue-minimisations  :    80
 total energy-change (2. order) :-0.2045649E-06  (-0.2055332E-06)
 number of electron       2.0000000 magnetization 
 augmentation part        2.0000000 magnetization 

 Free energy of the ion-electron system (eV)
  ---------------------------------------------------
  alpha Z        PSCENC =         0.00121808
  Ewald energy   TEWEN  =        15.09199948
  -1/2 Hartree   DENC   =       -24.58175898
  -exchange  EXHF       =         0.00000000
  -V(xc)+E(xc)   XCENC  =         4.34916635
  PAW double counting   =         4.26805487       -4.28581044
  entropy T*S    EENTRO =         0.00057979
  eigenvalues    EBANDS =       -27.23631922
  atomic energy  EATOM  =        24.95726533
  ---------------------------------------------------
  free energy    TOTEN  =        -7.43560473 eV

  energy without entropy =       -7.43618453  energy(sigma->0) =       -7.43579800


--------------------------------------------------------------------------------------------------------




----------------------------------------- Iteration    1(   6)  ---------------------------------------


     EDDAV:  cpu time    0.67: real time    0.67
       DOS:  cpu time    0.00: real time    0.00
    --------------------------------------------
      LOOP:  cpu time    0.67: real time    0.70

 eigenvalue-minimisations  :    40
 total energy-change (2. order) :-0.2437773E-08  ( 0.1453060E-11)
 number of electron       2.0000000 magnetization 
 augmentation part        2.0000000 magnetization 

 Free energy of the ion-electron system (eV)
  ---------------------------------------------------
  alpha Z        PSCENC =         0.00121808
  Ewald energy   TEWEN  =        15.09199948
  -1/2 Hartree   DENC   =       -24.58175898
  -exchange  EXHF       =         0.00000000
  -V(xc)+E(xc)   XCENC  =         4.34916635
  PAW double counting   =         4.26805487       -4.28581044
  entropy T*S    EENTRO =         0.00057979
  eigenvalues    EBANDS =       -27.23631922
  atomic energy  EATOM  =        24.95726533
  ---------------------------------------------------
  free energy    TOTEN  =        -7.43560474 eV

  energy without entropy =       -7.43618453  energy(sigma->0) =       -7.43579800


--------------------------------------------------------------------------------------------------------




----------------------------------------- Iteration    1(   7)  ---------------------------------------


     EDDAV:  cpu time    1.18: real time    1.19
       DOS:  cpu time    0.00: real time    0.00
    --------------------------------------------
      LOOP:  cpu time    1.19: real time    1.21

 eigenvalue-minimisations  :    80
 total energy-change (2. order) : 0.2154721E-08  ( 0.4618528E-11)
 number of electron       2.0000000 magnetization 
 augmentation part        2.0000000 magnetization 

 Free energy of the ion-electron system (eV)
  ---------------------------------------------------
  alpha Z        PSCENC =         0.00121808
  Ewald energy   TEWEN  =        15.09199948
  -1/2 Hartree   DENC   =       -24.58175898
  -exchange  EXHF       =         0.00000000
  -V(xc)+E(xc)   XCENC  =         4.34916635
  PAW double counting   =         4.26805487       -4.28581044
  entropy T*S    EENTRO =         0.00057979
  eigenvalues    EBANDS =       -27.23631922
  atomic energy  EATOM  =        24.95726533
  ---------------------------------------------------
  free energy    TOTEN  =        -7.43560474 eV

  energy without entropy =       -7.43618453  energy(sigma->0) =       -7.43579800


--------------------------------------------------------------------------------------------------------




----------------------------------------- Iteration    1(   8)  ---------------------------------------


     EDDAV:  cpu time    0.67: real time    0.67
       DOS:  cpu time    0.00: real time    0.00
    --------------------------------------------
      LOOP:  cpu time    0.67: real time    0.70

 eigenvalue-minimisations  :    40
 total energy-change (2. order) :-0.3282921E-09  ( 0.4028777E-11)
 number of electron       2.0000000 magnetization 
 augmentation part        2.0000000 magnetization 

 Free energy of the ion-electron system (eV)
  ---------------------------------------------------
  alpha Z        PSCENC =         0.00121808
  Ewald energy   TEWEN  =        15.09199948
  -1/2 Hartree   DENC   =       -24.58175898
  -exchange  EXHF       =         0.00000000
  -V(xc)+E(xc)   XCENC  =         4.34916635
  PAW double counting   =         4.26805487       -4.28581044
  entropy T*S    EENTRO =         0.00057979
  eigenvalues    EBANDS =       -27.23631922
  atomic energy  EATOM  =        24.95726533
  ---------------------------------------------------
  free energy    TOTEN  =        -7.43560474 eV

  energy without entropy =       -7.43618453  energy(sigma->0) =       -7.43579800


--------------------------------------------------------------------------------------------------------




----------------------------------------- Iteration    1(   9)  ---------------------------------------


     EDDAV:  cpu time    0.43: real time    0.43
       DOS:  cpu time    0.00: real time    0.00
    --------------------------------------------
      LOOP:  cpu time    0.43: real time    0.45

 eigenvalue-minimisations  :    20
 total energy-change (2. order) :-0.1108191E-08  ( 0.4753531E-11)
 number of electron       2.0000000 magnetization 
 augmentation part        2.0000000 magnetization 

 Free energy of the ion-electron system (eV)
  ---------------------------------------------------
  alpha Z        PSCENC =         0.00121808
  Ewald energy   TEWEN  =        15.09199948
  -1/2 Hartree   DENC   =       -24.58175898
  -exchange  EXHF       =         0.00000000
  -V(xc)+E(xc)   XCENC  =         4.34916635
  PAW double counting   =         4.26805487       -4.28581044
  entropy T*S    EENTRO =         0.00057979
  eigenvalues    EBANDS =       -27.23631922
  atomic energy  EATOM  =        24.95726533
  ---------------------------------------------------
  free energy    TOTEN  =        -7.43560474 eV

  energy without entropy =       -7.43618453  energy(sigma->0) =       -7.43579800


--------------------------------------------------------------------------------------------------------




----------------------------------------- Iteration    1(  10)  ---------------------------------------


     EDDAV:  cpu time    0.43: real time    0.43
       DOS:  cpu time    0.00: real time    0.00
    CHARGE:  cpu time    0.08: real time    0.08
    MIXING:  cpu time    0.01: real time    0.01
    --------------------------------------------
      LOOP:  cpu time    0.51: real time    0.54

 eigenvalue-minimisations  :    20
 total energy-change (2. order) : 0.1018940E-08  ( 0.4984457E-11)
 number of electron       2.0000031 magnetization 
 augmentation part        0.0460186 magnetization 

 Broyden mixing:
  rms(total) = 0.44486E+00    rms(broyden)= 0.44470E+00
  rms(prec ) = 0.47942E+00
  weight for this iteration     100.00

 Free energy of the ion-electron system (eV)
  ---------------------------------------------------
  alpha Z        PSCENC =         0.00121808
  Ewald energy   TEWEN  =        15.09199948
  -1/2 Hartree   DENC   =       -24.58175898
  -exchange  EXHF       =         0.00000000
  -V(xc)+E(xc)   XCENC  =         4.34916635
  PAW double counting   =         4.26805487       -4.28581044
  entropy T*S    EENTRO =         0.00057979
  eigenvalues    EBANDS =       -27.23631922
  atomic energy  EATOM  =        24.95726533
  ---------------------------------------------------
  free energy    TOTEN  =        -7.43560474 eV

  energy without entropy =       -7.43618453  energy(sigma->0) =       -7.43579800


--------------------------------------------------------------------------------------------------------




----------------------------------------- Iteration    1(  11)  ---------------------------------------


    POTLOK:  cpu time    0.12: real time    0.13
    SETDIJ:  cpu time    0.00: real time    0.00
    EDDIAG:  cpu time    0.17: real time    0.17
  RMM-DIIS:  cpu time    1.25: real time    1.25
    ORTHCH:  cpu time    0.01: real time    0.01
       DOS:  cpu time    0.00: real time    0.00
    CHARGE:  cpu time    0.08: real time    0.08
    MIXING:  cpu time    0.01: real time    0.01
    --------------------------------------------
      LOOP:  cpu time    1.65: real time    1.68

 eigenvalue-minimisations  :    40
 total energy-change (2. order) : 0.4406620E+00  (-0.1677765E-01)
 number of electron       2.0000029 magnetization 
 augmentation part        0.0442551 magnetization 

 Broyden mixing:
  rms(total) = 0.24479E+00    rms(broyden)= 0.24479E+00
  rms(prec ) = 0.26560E+00
  weight for this iteration     100.00

 eigenvalues of (default mixing * dielectric matrix)
  average eigenvalue GAMMA=   2.1990
  2.1990

 Free energy of the ion-electron system (eV)
  ---------------------------------------------------
  alpha Z        PSCENC =         0.00121808
  Ewald energy   TEWEN  =        15.09199948
  -1/2 Hartree   DENC   =       -27.06242276
  -exchange  EXHF       =         0.00000000
  -V(xc)+E(xc)   XCENC  =         4.70482597
  PAW double counting   =        10.99350088      -11.02461575
  entropy T*S    EENTRO =         0.00057979
  eigenvalues    EBANDS =       -24.65729379
  atomic energy  EATOM  =        24.95726533
  ---------------------------------------------------
  free energy    TOTEN  =        -6.99494276 eV

  energy without entropy =       -6.99552255  energy(sigma->0) =       -6.99513602


--------------------------------------------------------------------------------------------------------




----------------------------------------- Iteration    1(  12)  ---------------------------------------


    POTLOK:  cpu time    0.12: real time    0.13
    SETDIJ:  cpu time    0.00: real time    0.00
    EDDIAG:  cpu time    0.18: real time    0.18
  RMM-DIIS:  cpu time    1.25: real time    1.26
    ORTHCH:  cpu time    0.01: real time    0.01
       DOS:  cpu time    0.00: real time    0.00
    CHARGE:  cpu time    0.08: real time    0.08
    MIXING:  cpu time    0.01: real time    0.01
    --------------------------------------------
      LOOP:  cpu time    1.66: real time    1.70

 eigenvalue-minimisations  :    40
 total energy-change (2. order) : 0.2412274E+00  (-0.4604926E-01)
 number of electron       2.0000027 magnetization 
 augmentation part        0.0414014 magnetization 

 Broyden mixing:
  rms(total) = 0.29599E-01    rms(broyden)= 0.29509E-01
  rms(prec ) = 0.32762E-01
  weight for this iteration     100.00

 eigenvalues of (default mixing * dielectric matrix)
  average eigenvalue GAMMA=   2.5936
  2.5936  2.5936

 Free energy of the ion-electron system (eV)
  ---------------------------------------------------
  alpha Z        PSCENC =         0.00121808
  Ewald energy   TEWEN  =        15.09199948
  -1/2 Hartree   DENC   =       -30.88983995
  -exchange  EXHF       =         0.00000000
  -V(xc)+E(xc)   XCENC  =         5.25851373
  PAW double counting   =        24.46719520      -24.51971306
  entropy T*S    EENTRO =         0.00057979
  eigenvalues    EBANDS =       -21.12093392
  atomic energy  EATOM  =        24.95726533
  ---------------------------------------------------
  free energy    TOTEN  =        -6.75371532 eV

  energy without entropy =       -6.75429511  energy(sigma->0) =       -6.75390858


--------------------------------------------------------------------------------------------------------




----------------------------------------- Iteration    1(  13)  ---------------------------------------


    POTLOK:  cpu time    0.13: real time    0.13
    SETDIJ:  cpu time    0.00: real time    0.00
    EDDIAG:  cpu time    0.18: real time    0.18
  RMM-DIIS:  cpu time    1.26: real time    1.26
    ORTHCH:  cpu time    0.01: real time    0.01
       DOS:  cpu time    0.00: real time    0.00
    CHARGE:  cpu time    0.08: real time    0.08
    MIXING:  cpu time    0.01: real time    0.01
    --------------------------------------------
      LOOP:  cpu time    1.67: real time    1.69

 eigenvalue-minimisations  :    40
 total energy-change (2. order) :-0.3833491E-02  (-0.4577626E-03)
 number of electron       2.0000027 magnetization 
 augmentation part        0.0414769 magnetization 

 Broyden mixing:
  rms(total) = 0.23422E-01    rms(broyden)= 0.23418E-01
  rms(prec ) = 0.25937E-01
  weight for this iteration     100.00

 eigenvalues of (default mixing * dielectric matrix)
  average eigenvalue GAMMA=   1.9881
  0.9335  2.5154  2.5154

 Free energy of the ion-electron system (eV)
  ---------------------------------------------------
  alpha Z        PSCENC =         0.00121808
  Ewald energy   TEWEN  =        15.09199948
  -1/2 Hartree   DENC   =       -30.79987232
  -exchange  EXHF       =         0.00000000
  -V(xc)+E(xc)   XCENC  =         5.23086437
  PAW double counting   =        23.22839028      -23.27489585
  entropy T*S    EENTRO =         0.00057979
  eigenvalues    EBANDS =       -21.19309797
  atomic energy  EATOM  =        24.95726533
  ---------------------------------------------------
  free energy    TOTEN  =        -6.75754881 eV

  energy without entropy =       -6.75812860  energy(sigma->0) =       -6.75774207


--------------------------------------------------------------------------------------------------------




----------------------------------------- Iteration    1(  14)  ---------------------------------------


    POTLOK:  cpu time    0.12: real time    0.13
    SETDIJ:  cpu time    0.00: real time    0.00
    EDDIAG:  cpu time    0.18: real time    0.18
  RMM-DIIS:  cpu time    1.26: real time    1.26
    ORTHCH:  cpu time    0.01: real time    0.01
       DOS:  cpu time    0.00: real time    0.00
    CHARGE:  cpu time    0.08: real time    0.08
    MIXING:  cpu time    0.01: real time    0.01
    --------------------------------------------
      LOOP:  cpu time    1.67: real time    1.70

 eigenvalue-minimisations  :    40
 total energy-change (2. order) : 0.2952200E-02  (-0.3596903E-03)
 number of electron       2.0000027 magnetization 
 augmentation part        0.0412507 magnetization 

 Broyden mixing:
  rms(total) = 0.38014E-02    rms(broyden)= 0.37923E-02
  rms(prec ) = 0.57964E-02
  weight for this iteration     100.00

 eigenvalues of (default mixing * dielectric matrix)
  average eigenvalue GAMMA=   2.5975
  4.2992  1.0001  2.7426  2.3482

 Free energy of the ion-electron system (eV)
  ---------------------------------------------------
  alpha Z        PSCENC =         0.00121808
  Ewald energy   TEWEN  =        15.09199948
  -1/2 Hartree   DENC   =       -31.20079769
  -exchange  EXHF       =         0.00000000
  -V(xc)+E(xc)   XCENC  =         5.28500123
  PAW double counting   =        24.59613471      -24.64457923
  entropy T*S    EENTRO =         0.00057979
  eigenvalues    EBANDS =       -20.84141832
  atomic energy  EATOM  =        24.95726533
  ---------------------------------------------------
  free energy    TOTEN  =        -6.75459661 eV

  energy without entropy =       -6.75517640  energy(sigma->0) =       -6.75478987


--------------------------------------------------------------------------------------------------------




----------------------------------------- Iteration    1(  15)  ---------------------------------------


    POTLOK:  cpu time    0.13: real time    0.13
    SETDIJ:  cpu time    0.00: real time    0.00
    EDDIAG:  cpu time    0.18: real time    0.18
  RMM-DIIS:  cpu time    1.27: real time    1.27
    ORTHCH:  cpu time    0.01: real time    0.01
       DOS:  cpu time    0.00: real time    0.00
    CHARGE:  cpu time    0.08: real time    0.08
    MIXING:  cpu time    0.01: real time    0.01
    --------------------------------------------
      LOOP:  cpu time    1.68: real time    1.70

 eigenvalue-minimisations  :    40
 total energy-change (2. order) :-0.1368495E-02  (-0.1332795E-03)
 number of electron       2.0000027 magnetization 
 augmentation part        0.0411614 magnetization 

 Broyden mixing:
  rms(total) = 0.26292E-02    rms(broyden)= 0.26266E-02
  rms(prec ) = 0.31451E-02
  weight for this iteration     100.00

 eigenvalues of (default mixing * dielectric matrix)
  average eigenvalue GAMMA=   2.2108
  4.2188  2.5166  2.4158  0.9514  0.9514

 Free energy of the ion-electron system (eV)
  ---------------------------------------------------
  alpha Z        PSCENC =         0.00121808
  Ewald energy   TEWEN  =        15.09199948
  -1/2 Hartree   DENC   =       -31.41073183
  -exchange  EXHF       =         0.00000000
  -V(xc)+E(xc)   XCENC  =         5.30381196
  PAW double counting   =        24.65518917      -24.70429950
  entropy T*S    EENTRO =         0.00057979
  eigenvalues    EBANDS =       -20.65099758
  atomic energy  EATOM  =        24.95726533
  ---------------------------------------------------
  free energy    TOTEN  =        -6.75596510 eV

  energy without entropy =       -6.75654490  energy(sigma->0) =       -6.75615837


--------------------------------------------------------------------------------------------------------




----------------------------------------- Iteration    1(  16)  ---------------------------------------


    POTLOK:  cpu time    0.13: real time    0.13
    SETDIJ:  cpu time    0.00: real time    0.00
    EDDIAG:  cpu time    0.18: real time    0.18
  RMM-DIIS:  cpu time    1.27: real time    1.27
    ORTHCH:  cpu time    0.01: real time    0.01
       DOS:  cpu time    0.00: real time    0.00
    CHARGE:  cpu time    0.08: real time    0.08
    MIXING:  cpu time    0.01: real time    0.01
    --------------------------------------------
      LOOP:  cpu time    1.68: real time    1.71

 eigenvalue-minimisations  :    40
 total energy-change (2. order) :-0.5209494E-03  (-0.1709312E-05)
 number of electron       2.0000027 magnetization 
 augmentation part        0.0411559 magnetization 

 Broyden mixing:
  rms(total) = 0.12642E-02    rms(broyden)= 0.12639E-02
  rms(prec ) = 0.18511E-02
  weight for this iteration     100.00

 eigenvalues of (default mixing * dielectric matrix)
  average eigenvalue GAMMA=   2.7052
  5.3964  3.9530  2.6175  2.2747  1.0170  0.9726

 Free energy of the ion-electron system (eV)
  ---------------------------------------------------
  alpha Z        PSCENC =         0.00121808
  Ewald energy   TEWEN  =        15.09199948
  -1/2 Hartree   DENC   =       -31.40648685
  -exchange  EXHF       =         0.00000000
  -V(xc)+E(xc)   XCENC  =         5.30198539
  PAW double counting   =        24.61967149      -24.66853063
  entropy T*S    EENTRO =         0.00057979
  eigenvalues    EBANDS =       -20.65418813
  atomic energy  EATOM  =        24.95726533
  ---------------------------------------------------
  free energy    TOTEN  =        -6.75648605 eV

  energy without entropy =       -6.75706584  energy(sigma->0) =       -6.75667932


--------------------------------------------------------------------------------------------------------




----------------------------------------- Iteration    1(  17)  ---------------------------------------


    POTLOK:  cpu time    0.13: real time    0.13
    SETDIJ:  cpu time    0.00: real time    0.00
    EDDIAG:  cpu time    0.18: real time    0.18
  RMM-DIIS:  cpu time    1.27: real time    1.27
    ORTHCH:  cpu time    0.02: real time    0.02
       DOS:  cpu time    0.00: real time    0.00
    CHARGE:  cpu time    0.08: real time    0.08
    MIXING:  cpu time    0.01: real time    0.01
    --------------------------------------------
      LOOP:  cpu time    1.69: real time    1.71

 eigenvalue-minimisations  :    40
 total energy-change (2. order) :-0.1820251E-02  (-0.3672374E-04)
 number of electron       2.0000027 magnetization 
 augmentation part        0.0411670 magnetization 

 Broyden mixing:
  rms(total) = 0.88916E-03    rms(broyden)= 0.88915E-03
  rms(prec ) = 0.10313E-02
  weight for this iteration     100.00

 eigenvalues of (default mixing * dielectric matrix)
  average eigenvalue GAMMA=   2.7830
  5.6869  0.9847  1.0585  3.8950  2.8135  2.8135  2.2288

 Free energy of the ion-electron system (eV)
  ---------------------------------------------------
  alpha Z        PSCENC =         0.00121808
  Ewald energy   TEWEN  =        15.09199948
  -1/2 Hartree   DENC   =       -31.38727464
  -exchange  EXHF       =         0.00000000
  -V(xc)+E(xc)   XCENC  =         5.29576081
  PAW double counting   =        24.54463101      -24.59320869
  entropy T*S    EENTRO =         0.00057979
  eigenvalues    EBANDS =       -20.66927747
  atomic energy  EATOM  =        24.95726533
  ---------------------------------------------------
  free energy    TOTEN  =        -6.75830630 eV

  energy without entropy =       -6.75888610  energy(sigma->0) =       -6.75849957


--------------------------------------------------------------------------------------------------------




----------------------------------------- Iteration    1(  18)  ---------------------------------------


    POTLOK:  cpu time    0.13: real time    0.13
    SETDIJ:  cpu time    0.00: real time    0.00
    EDDIAG:  cpu time    0.18: real time    0.18
  RMM-DIIS:  cpu time    1.27: real time    1.28
    ORTHCH:  cpu time    0.01: real time    0.01
       DOS:  cpu time    0.00: real time    0.00
    CHARGE:  cpu time    0.08: real time    0.08
    MIXING:  cpu time    0.01: real time    0.01
    --------------------------------------------
      LOOP:  cpu time    1.70: real time    1.72

 eigenvalue-minimisations  :    40
 total energy-change (2. order) :-0.2389039E-03  (-0.1863972E-05)
 number of electron       2.0000027 magnetization 
 augmentation part        0.0411533 magnetization 

 Broyden mixing:
  rms(total) = 0.84989E-03    rms(broyden)= 0.84985E-03
  rms(prec ) = 0.92373E-03
  weight for this iteration     100.00

 eigenvalues of (default mixing * dielectric matrix)
  average eigenvalue GAMMA=   2.7794
  6.9451  4.2239  3.3026  2.5826  2.2450  1.0216  1.0216  0.8929

 Free energy of the ion-electron system (eV)
  ---------------------------------------------------
  alpha Z        PSCENC =         0.00121808
  Ewald energy   TEWEN  =        15.09199948
  -1/2 Hartree   DENC   =       -31.41138651
  -exchange  EXHF       =         0.00000000
  -V(xc)+E(xc)   XCENC  =         5.29844186
  PAW double counting   =        24.58702718      -24.63584160
  entropy T*S    EENTRO =         0.00057979
  eigenvalues    EBANDS =       -20.64784883
  atomic energy  EATOM  =        24.95726533
  ---------------------------------------------------
  free energy    TOTEN  =        -6.75854521 eV

  energy without entropy =       -6.75912500  energy(sigma->0) =       -6.75873847


--------------------------------------------------------------------------------------------------------




----------------------------------------- Iteration    1(  19)  ---------------------------------------


    POTLOK:  cpu time    0.13: real time    0.13
    SETDIJ:  cpu time    0.00: real time    0.00
    EDDIAG:  cpu time    0.19: real time    0.19
  RMM-DIIS:  cpu time    1.28: real time    1.28
    ORTHCH:  cpu time    0.01: real time    0.01
       DOS:  cpu time    0.00: real time    0.00
    CHARGE:  cpu time    0.08: real time    0.08
    MIXING:  cpu time    0.01: real time    0.01
    --------------------------------------------
      LOOP:  cpu time    1.70: real time    1.73

 eigenvalue-minimisations  :    40
 total energy-change (2. order) :-0.1455818E-03  (-0.1312160E-05)
 number of electron       2.0000027 magnetization 
 augmentation part        0.0411548 magnetization 

 Broyden mixing:
  rms(total) = 0.29423E-03    rms(broyden)= 0.29423E-03
  rms(prec ) = 0.33517E-03
  weight for this iteration     100.00

 eigenvalues of (default mixing * dielectric matrix)
  average eigenvalue GAMMA=   2.9493
  7.7024  4.7914  3.7135  2.5481  2.5481  2.2077  1.0632  1.0156  0.9535

 Free energy of the ion-electron system (eV)
  ---------------------------------------------------
  alpha Z        PSCENC =         0.00121808
  Ewald energy   TEWEN  =        15.09199948
  -1/2 Hartree   DENC   =       -31.40804884
  -exchange  EXHF       =         0.00000000
  -V(xc)+E(xc)   XCENC  =         5.29753540
  PAW double counting   =        24.57322787      -24.62196792
  entropy T*S    EENTRO =         0.00057979
  eigenvalues    EBANDS =       -20.65049998
  atomic energy  EATOM  =        24.95726533
  ---------------------------------------------------
  free energy    TOTEN  =        -6.75869079 eV

  energy without entropy =       -6.75927058  energy(sigma->0) =       -6.75888405


--------------------------------------------------------------------------------------------------------




----------------------------------------- Iteration    1(  20)  ---------------------------------------


    POTLOK:  cpu time    0.22: real time    0.28
    SETDIJ:  cpu time    0.00: real time    0.00
    EDDIAG:  cpu time    0.66: real time    0.66
  RMM-DIIS:  cpu time    1.30: real time    1.30
    ORTHCH:  cpu time    0.02: real time    0.02
       DOS:  cpu time    0.00: real time    0.00
    CHARGE:  cpu time    0.08: real time    0.08
    MIXING:  cpu time    0.01: real time    0.01
    --------------------------------------------
      LOOP:  cpu time    2.30: real time    2.46

 eigenvalue-minimisations  :    40
 total energy-change (2. order) :-0.5484239E-04  (-0.1430699E-06)
 number of electron       2.0000027 magnetization 
 augmentation part        0.0411578 magnetization 

 Broyden mixing:
  rms(total) = 0.78196E-04    rms(broyden)= 0.78151E-04
  rms(prec ) = 0.10025E-03
  weight for this iteration     100.00

 eigenvalues of (default mixing * dielectric matrix)
  average eigenvalue GAMMA=   2.9178
  8.1351  5.2387  3.5265  3.3138  2.4256  2.1955  0.9941  0.9618  1.0752  1.3116

 Free energy of the ion-electron system (eV)
  ---------------------------------------------------
  alpha Z        PSCENC =         0.00121808
  Ewald energy   TEWEN  =        15.09199948
  -1/2 Hartree   DENC   =       -31.40584054
  -exchange  EXHF       =         0.00000000
  -V(xc)+E(xc)   XCENC  =         5.29700630
  PAW double counting   =        24.56808239      -24.61677432
  entropy T*S    EENTRO =         0.00057979
  eigenvalues    EBANDS =       -20.65228215
  atomic energy  EATOM  =        24.95726533
  ---------------------------------------------------
  free energy    TOTEN  =        -6.75874563 eV

  energy without entropy =       -6.75932542  energy(sigma->0) =       -6.75893890


--------------------------------------------------------------------------------------------------------




----------------------------------------- Iteration    1(  21)  ---------------------------------------


    POTLOK:  cpu time    0.15: real time    0.15
    SETDIJ:  cpu time    0.00: real time    0.00
    EDDIAG:  cpu time    0.20: real time    0.20
  RMM-DIIS:  cpu time    1.30: real time    1.30
    ORTHCH:  cpu time    0.02: real time    0.02
       DOS:  cpu time    0.00: real time    0.00
    CHARGE:  cpu time    0.08: real time    0.08
    MIXING:  cpu time    0.01: real time    0.02
    --------------------------------------------
      LOOP:  cpu time    1.77: real time    1.77

 eigenvalue-minimisations  :    39
 total energy-change (2. order) :-0.1824912E-04  (-0.1899296E-07)
 number of electron       2.0000027 magnetization 
 augmentation part        0.0411586 magnetization 

 Broyden mixing:
  rms(total) = 0.50725E-04    rms(broyden)= 0.50709E-04
  rms(prec ) = 0.64649E-04
  weight for this iteration     100.00

 eigenvalues of (default mixing * dielectric matrix)
  average eigenvalue GAMMA=   3.0779
  8.7678  5.8373  4.4514  3.3126  2.7917  2.4569  2.1732  0.9649  0.9766  1.0621
  1.0621

 Free energy of the ion-electron system (eV)
  ---------------------------------------------------
  alpha Z        PSCENC =         0.00121808
  Ewald energy   TEWEN  =        15.09199948
  -1/2 Hartree   DENC   =       -31.40493922
  -exchange  EXHF       =         0.00000000
  -V(xc)+E(xc)   XCENC  =         5.29680483
  PAW double counting   =        24.56457244      -24.61326616
  entropy T*S    EENTRO =         0.00057979
  eigenvalues    EBANDS =       -20.65299845
  atomic energy  EATOM  =        24.95726533
  ---------------------------------------------------
  free energy    TOTEN  =        -6.75876388 eV

  energy without entropy =       -6.75934367  energy(sigma->0) =       -6.75895715


--------------------------------------------------------------------------------------------------------




----------------------------------------- Iteration    1(  22)  ---------------------------------------


    POTLOK:  cpu time    0.15: real time    0.15
    SETDIJ:  cpu time    0.00: real time    0.00
    EDDIAG:  cpu time    0.20: real time    0.20
  RMM-DIIS:  cpu time    1.30: real time    1.30
    ORTHCH:  cpu time    0.02: real time    0.02
       DOS:  cpu time    0.00: real time    0.00
    CHARGE:  cpu time    0.08: real time    0.08
    MIXING:  cpu time    0.02: real time    0.02
    --------------------------------------------
      LOOP:  cpu time    1.78: real time    1.78

 eigenvalue-minimisations  :    39
 total energy-change (2. order) :-0.1286747E-04  (-0.8193325E-08)
 number of electron       2.0000027 magnetization 
 augmentation part        0.0411586 magnetization 

 Broyden mixing:
  rms(total) = 0.40005E-04    rms(broyden)= 0.40004E-04
  rms(prec ) = 0.43838E-04
  weight for this iteration     100.00

 eigenvalues of (default mixing * dielectric matrix)
  average eigenvalue GAMMA=   3.0826
  9.1201  6.1741  4.6397  3.4157  3.1708  2.4208  2.2048  1.8062  1.0447  1.0447
  0.9624  0.9875

 Free energy of the ion-electron system (eV)
  ---------------------------------------------------
  alpha Z        PSCENC =         0.00121808
  Ewald energy   TEWEN  =        15.09199948
  -1/2 Hartree   DENC   =       -31.40597233
  -exchange  EXHF       =         0.00000000
  -V(xc)+E(xc)   XCENC  =         5.29691510
  PAW double counting   =        24.56518152      -24.61387651
  entropy T*S    EENTRO =         0.00057979
  eigenvalues    EBANDS =       -20.65208721
  atomic energy  EATOM  =        24.95726533
  ---------------------------------------------------
  free energy    TOTEN  =        -6.75877675 eV

  energy without entropy =       -6.75935654  energy(sigma->0) =       -6.75897001


--------------------------------------------------------------------------------------------------------




----------------------------------------- Iteration    1(  23)  ---------------------------------------


    POTLOK:  cpu time    0.15: real time    0.15
    SETDIJ:  cpu time    0.00: real time    0.00
    EDDIAG:  cpu time    0.21: real time    0.21
  RMM-DIIS:  cpu time    1.30: real time    1.30
    ORTHCH:  cpu time    0.02: real time    0.02
       DOS:  cpu time    0.00: real time    0.00
    CHARGE:  cpu time    0.08: real time    0.08
    MIXING:  cpu time    0.02: real time    0.02
    --------------------------------------------
      LOOP:  cpu time    1.78: real time    1.78

 eigenvalue-minimisations  :    39
 total energy-change (2. order) :-0.3233134E-05  (-0.6288893E-08)
 number of electron       2.0000027 magnetization 
 augmentation part        0.0411578 magnetization 

 Broyden mixing:
  rms(total) = 0.41139E-04    rms(broyden)= 0.41136E-04
  rms(prec ) = 0.44972E-04
  weight for this iteration     100.00

 eigenvalues of (default mixing * dielectric matrix)
  average eigenvalue GAMMA=   3.1720
  9.5328  6.8809  4.9068  4.0265  3.2572  2.8690  2.4668  2.1839  1.0857  0.9877
  0.9877  1.0255  1.0255

 Free energy of the ion-electron system (eV)
  ---------------------------------------------------
  alpha Z        PSCENC =         0.00121808
  Ewald energy   TEWEN  =        15.09199948
  -1/2 Hartree   DENC   =       -31.40718749
  -exchange  EXHF       =         0.00000000
  -V(xc)+E(xc)   XCENC  =         5.29707756
  PAW double counting   =        24.56832770      -24.61703258
  entropy T*S    EENTRO =         0.00057979
  eigenvalues    EBANDS =       -20.65102786
  atomic energy  EATOM  =        24.95726533
  ---------------------------------------------------
  free energy    TOTEN  =        -6.75877998 eV

  energy without entropy =       -6.75935977  energy(sigma->0) =       -6.75897325


--------------------------------------------------------------------------------------------------------




----------------------------------------- Iteration    1(  24)  ---------------------------------------


    POTLOK:  cpu time    0.15: real time    0.16
    SETDIJ:  cpu time    0.00: real time    0.00
    EDDIAG:  cpu time    0.21: real time    0.21
  RMM-DIIS:  cpu time    1.30: real time    1.30
    ORTHCH:  cpu time    0.02: real time    0.02
       DOS:  cpu time    0.00: real time    0.00
    CHARGE:  cpu time    0.08: real time    0.08
    MIXING:  cpu time    0.02: real time    0.02
    --------------------------------------------
      LOOP:  cpu time    1.79: real time    1.79

 eigenvalue-minimisations  :    39
 total energy-change (2. order) :-0.1944441E-05  (-0.1958245E-08)
 number of electron       2.0000027 magnetization 
 augmentation part        0.0411581 magnetization 

 Broyden mixing:
  rms(total) = 0.38533E-05    rms(broyden)= 0.38523E-05
  rms(prec ) = 0.46654E-05
  weight for this iteration     100.00

 eigenvalues of (default mixing * dielectric matrix)
  average eigenvalue GAMMA=   3.0245
  9.5335  6.9186  4.8200  4.1293  2.9223  2.9223  2.4308  2.1672  1.4975  1.0403
  0.9858  0.9858  0.9948  0.9948

 Free energy of the ion-electron system (eV)
  ---------------------------------------------------
  alpha Z        PSCENC =         0.00121808
  Ewald energy   TEWEN  =        15.09199948
  -1/2 Hartree   DENC   =       -31.40639277
  -exchange  EXHF       =         0.00000000
  -V(xc)+E(xc)   XCENC  =         5.29695875
  PAW double counting   =        24.56640858      -24.61510818
  entropy T*S    EENTRO =         0.00057979
  eigenvalues    EBANDS =       -20.65171098
  atomic energy  EATOM  =        24.95726533
  ---------------------------------------------------
  free energy    TOTEN  =        -6.75878193 eV

  energy without entropy =       -6.75936172  energy(sigma->0) =       -6.75897519


--------------------------------------------------------------------------------------------------------




----------------------------------------- Iteration    1(  25)  ---------------------------------------


    POTLOK:  cpu time    0.16: real time    0.16
    SETDIJ:  cpu time    0.00: real time    0.00
    EDDIAG:  cpu time    0.21: real time    0.21
  RMM-DIIS:  cpu time    1.29: real time    1.29
    ORTHCH:  cpu time    0.02: real time    0.02
       DOS:  cpu time    0.00: real time    0.00
    --------------------------------------------
      LOOP:  cpu time    1.68: real time    1.68

 eigenvalue-minimisations  :    38
 total energy-change (2. order) :-0.1020919E-06  ( 0.0000000E+00)
 number of electron       2.0000027 magnetization 
 augmentation part        0.0411581 magnetization 

 Free energy of the ion-electron system (eV)
  ---------------------------------------------------
  alpha Z        PSCENC =         0.00121808
  Ewald energy   TEWEN  =        15.09199948
  -1/2 Hartree   DENC   =       -31.40639849
  -exchange  EXHF       =         0.00000000
  -V(xc)+E(xc)   XCENC  =         5.29696064
  PAW double counting   =        24.56653662      -24.61523602
  entropy T*S    EENTRO =         0.00057979
  eigenvalues    EBANDS =       -20.65170747
  atomic energy  EATOM  =        24.95726533
  ---------------------------------------------------
  free energy    TOTEN  =        -6.75878203 eV

  energy without entropy =       -6.75936182  energy(sigma->0) =       -6.75897529


--------------------------------------------------------------------------------------------------------




 average (electrostatic) potential at core
  the test charge radii are     0.5201
  (the norm of the test charge is              1.0001)
       1 -41.6050       2 -41.6030
 
 
 
 E-fermi : -10.3174     XC(G=0):  -0.0713     alpha+bet : -0.0069


 k-point   1 :       0.0000    0.0000    0.0000
  band No.  band energies     occupation 
      1     -10.3259      2.00000
      2      -0.0551      0.00000
      3       0.1572      0.00000
      4       0.2516      0.00000
      5       0.3164      0.00000
      6       0.3171      0.00000
      7       0.3415      0.00000
      8       0.3452      0.00000
      9       0.4467      0.00000
     10       0.6072      0.00000
     11       0.6081      0.00000
     12       0.6432      0.00000
     13       0.7082      0.00000
     14       0.7094      0.00000
     15       0.7288      0.00000
     16       0.7288      0.00000
     17       0.7311      0.00000
     18       0.7324      0.00000
     19       0.7326      0.00000
     20       0.7345      0.00000


--------------------------------------------------------------------------------------------------------


 soft charge-density along one line, spin component           1
         0         1         2         3         4         5         6         7         8         9
 total charge-density along one line
 
 pseudopotential strength for first ion, spin component:           1
 -2.344  -4.039   0.001  -0.001   0.000
 -4.039  -6.874   0.004  -0.004   0.001
  0.001   0.004  -0.339  -0.003   0.000
 -0.001  -0.004  -0.003  -0.338  -0.000
  0.000   0.001   0.000  -0.000  -0.341
 total augmentation occupancy for first ion, spin component:           1
  3.132  -0.498  -0.244   0.284  -0.039
 -0.498   0.079   0.039  -0.045   0.006
 -0.244   0.039   0.019  -0.022   0.003
  0.284  -0.045  -0.022   0.026  -0.004
 -0.039   0.006   0.003  -0.004   0.000


------------------------ aborting loop because EDIFF is reached ----------------------------------------


    CHARGE:  cpu time    0.08: real time    0.08
    FORLOC:  cpu time    0.00: real time    0.00
    FORNL :  cpu time    0.15: real time    0.15
    STRESS:  cpu time    0.44: real time    0.44
    FORHAR:  cpu time    0.04: real time    0.04
    MIXING:  cpu time    0.02: real time    0.02
 _________________________________
                                  
|         DFTD3 V3.0 Rev 1        |
| S.Grimme, University Bonn       |
|        November  2012           |
 _________________________________

Please cite DFT-D3 as:
S. Grimme, J. Antony, S. Ehrlich and H. Krieg,
J. Chem. Phys. 132 (2010), 154104
If used with BJ-damping cite also
S. Grimme, S. Ehrlich and L. Goerigk,
J. Comput. Chem. 32 (2011), 1456-1465
For DFT-D2 the reference is
S. Grimme, J. Comput. Chem., 27 (2006), 1787

           DFT-D V3
 DF pbe       
 parameters
 s6       :    1.0000
 s8       :    0.7220
 rs6      :    1.2170
 rs18     :    1.0000
 alpha6   :   14.0000
 alpha8   :   16.0000
 k1-k3    :   16.0000    1.3333   -4.0000
 Cutoff    /Ang:   50.2022
 CN-Cutoff /Ang:   21.1671
 Edisp /eV,au:    -0.0000 -0.00000003

 E6    /eV :    -0.0000
 E8    /eV :    -0.0000
 % E8        : 50.20

 POSITION                                vdW-FORCE (eV/Ang)               C6          C8     CN


 ---------------------------------------------------------------------------------------------

   13.74488   11.47390   -4.33947       0.00000    0.00000   -0.00000      3.2         38.2  0.9
   13.66628   10.98749   -3.77276      -0.00000   -0.00000    0.00000      3.2         38.2  0.9

  FORCE on cell =-STRESS in cart. coord.  units (eV):
  Direction    XX          YY          ZZ          XY          YZ          ZX
  --------------------------------------------------------------------------------------
  DFT-D      -0.00000     0.00000     0.00000     0.00000    -0.00000    -0.00000
    FORVDW:  cpu time    0.01: real time    0.08

  FORCE on cell =-STRESS in cart. coord.  units (eV):
  Direction    XX          YY          ZZ          XY          YZ          ZX
  --------------------------------------------------------------------------------------
  Alpha Z     0.00122     0.00122     0.00122
  Ewald      -1.15285     6.68513     9.55972     1.29947    -9.37573    -1.51414
  Hartree     9.74791    10.66209    10.99645     0.15111    -1.09307    -0.17615
  E(xc)      -5.96816    -5.87806    -5.84498     0.01497    -0.10778    -0.01741
  Local     -18.38438   -23.92119   -25.95014    -0.91705     6.62232     1.06883
  n-local    -5.40077    -5.78636    -5.92875    -0.06434     0.46179     0.07487
  augment     0.26896     0.24116     0.23074    -0.00473     0.03299     0.00513
  Kinetic    20.76716    17.86225    16.79594    -0.48193     3.47542     0.56175
  Fock        0.00000     0.00000     0.00000     0.00000     0.00000     0.00000
  -------------------------------------------------------------------------------------
  Total      -0.12091    -0.13377    -0.13981    -0.00250     0.01592     0.00288
  in kB      -0.02422    -0.02679    -0.02800    -0.00050     0.00319     0.00058
  external pressure =       -0.03 kB  Pullay stress =        0.00 kB


 VOLUME and BASIS-vectors are now :
 -----------------------------------------------------------------------------
  energy-cutoff  :      400.00
  volume of cell :     8000.00
      direct lattice vectors                 reciprocal lattice vectors
    16.329931619 -8.164965809 -8.164965809     0.040824829 -0.020412415 -0.020412415
     0.000000000 14.142135624-14.142135624     0.000000000  0.035355339 -0.035355339
    11.547005384 11.547005384 11.547005384     0.028867513  0.028867513  0.028867513

  length of vectors
    20.000000000 20.000000000 20.000000000     0.050000000  0.050000000  0.050000000


 FORCES acting on ions
    electron-ion (+dipol)            ewald-force                    non-local-force                 convergence-correction
 -----------------------------------------------------------------------------------------------
   -.214E+01 -.133E+02 0.155E+02   0.267E+01 0.165E+02 -.193E+02   -.526E+00 -.327E+01 0.380E+01   0.717E-06 0.488E-05 -.560E-05
   0.214E+01 0.133E+02 -.155E+02   -.267E+01 -.165E+02 0.193E+02   0.529E+00 0.327E+01 -.381E+01   -.966E-06 -.518E-05 0.617E-05
 -----------------------------------------------------------------------------------------------
   -.357E-03 -.665E-04 -.335E-03   0.000E+00 0.000E+00 0.000E+00   0.340E-02 0.329E-02 -.219E-02   -.249E-06 -.306E-06 0.571E-06
 
 
 POSITION                                       TOTAL-FORCE (eV/Angst)
 -----------------------------------------------------------------------------------
     13.74488     11.47390     -4.33947         0.000274     -0.000514     -0.000071
     13.66628     10.98749     -3.77276        -0.000274      0.000514      0.000071
 -----------------------------------------------------------------------------------
    total drift:                                0.003047      0.003225     -0.002526


--------------------------------------------------------------------------------------------------------



  FREE ENERGIE OF THE ION-ELECTRON SYSTEM (eV)
  ---------------------------------------------------
  free  energy   TOTEN  =        -6.75878285 eV

  energy  without entropy=       -6.75936264  energy(sigma->0) =       -6.75897611
 


--------------------------------------------------------------------------------------------------------


    POTLOK:  cpu time    0.32: real time    0.48


--------------------------------------------------------------------------------------------------------


 stress matrix after NEB project (eV)
     -0.12091     -0.00250      0.00288
     -0.00250     -0.13377      0.01592
      0.00288      0.01592     -0.13981
  FORCES: max atom, RMS     0.000587    0.000587
  FORCE total and by dimension    0.000829    0.000514
  Stress total and by dimension    0.229341    0.139812
 Quasi-Newton relaxation of ions (Broydens 2nd method)
  g(Force)  = 0.332E-07   g(Stress)= 0.000E+00

 Reset! Starting new Quasi-Newton update for ions 


--------------------------------------------------------------------------------------------------------


  
 reached required accuracy - stopping structural energy minimisation
     LOOP+:  cpu time   35.35: real time   36.27
    4ORBIT:  cpu time    0.00: real time    0.00

 total amount of memory used by VASP on root node    85801. kBytes
========================================================================

   base      :      30000. kBytes
   nonlr-proj:        141. kBytes
   fftplans  :       8886. kBytes
   grid      :      44449. kBytes
   one-center:          2. kBytes
   wavefun   :       2323. kBytes
 
  
  
 General timing and accounting informations for this job:
 ========================================================
  
                  Total CPU time used (sec):       42.209
                            User time (sec):       37.300
                          System time (sec):        4.908
                         Elapsed time (sec):       43.550
  
                   Maximum memory used (kb):      243036.
                   Average memory used (kb):           0.
  
                          Minor page faults:       937669
                          Major page faults:           15
                 Voluntary context switches:         1403
