    9    9  200    1
  0.8888889E+03  0.2000000E-08  0.2000000E-08  0.2000000E-08  0.5000000E-15
  1.000000000000000E-004
  CAR 
 unknown system                          
   20    1   15
 
  0.0000000E+00  0.0000000E+00  0.0000000E+00  0.1000000E+01
   1      -25.800664
   2      -17.785614
   3      -15.602702
   4      -11.724693
   5      -11.415752
   6      -11.330499
   7       -9.491260
   8       -9.044870
   9       -7.566726
  10       -5.846481
  11       -0.503780
  12        0.030361
  13        0.100139
  14        0.205948
  15        0.289718
