   13   13  200    1
  0.6153846E+03  0.2000000E-08  0.2000000E-08  0.2000000E-08  0.5000000E-15
  1.000000000000000E-004
  CAR 
 unknown system                          
   28    1   21
 
  0.0000000E+00  0.0000000E+00  0.0000000E+00  0.1000000E+01
   1      -20.022195
   2      -18.688735
   3      -16.762587
   4      -14.111388
   5      -13.434724
   6      -11.466948
   7      -10.826817
   8      -10.040871
   9       -9.776471
  10       -9.122507
  11       -8.615200
  12       -8.138587
  13       -7.734037
  14       -5.444120
  15       -1.627313
  16       -0.373281
  17       -0.104407
  18       -0.065119
  19        0.210638
  20        0.241556
  21        0.321356
