 vasp.5.3.2 13Sep12 (build Oct  1 2014 13:46:58) complex                        
  
 executed on             LinuxIFC date 2015.11.22  18:50:14
 running on   20 total cores
 distrk:  each k-point on   20 cores,    1 groups
 distr:  one band on NCORES_PER_BAND=  20 cores,    1 groups


--------------------------------------------------------------------------------------------------------


 INCAR:
 POTCAR:    PAW_PBE C 08Apr2002                   
 POTCAR:    PAW_PBE H 15Jun2001                   

 ----------------------------------------------------------------------------- 
|                                                                             |
|           W    W    AA    RRRRR   N    N  II  N    N   GGGG   !!!           |
|           W    W   A  A   R    R  NN   N  II  NN   N  G    G  !!!           |
|           W    W  A    A  R    R  N N  N  II  N N  N  G       !!!           |
|           W WW W  AAAAAA  RRRRR   N  N N  II  N  N N  G  GGG   !            |
|           WW  WW  A    A  R   R   N   NN  II  N   NN  G    G                |
|           W    W  A    A  R    R  N    N  II  N    N   GGGG   !!!           |
|                                                                             |
|      For optimal performance we recommend that you set                      |
|        NPAR = 4 - approx SQRT( number of cores)                             |
|      (number of cores/NPAR must be integer)                                 |
|      This setting will greatly improve the performance of VASP for DFT.     |
|      The default NPAR=number of cores might be grossly inefficient          |
|      on modern multi-core architectures or massively parallel machines.     |
|      Do your own testing.                                                   |
|      Unfortunately you need to use the default for hybrid, GW and RPA       |
|      calculations.                                                          |
|                                                                             |
 ----------------------------------------------------------------------------- 

 POTCAR:    PAW_PBE C 08Apr2002                   
  local pseudopotential read in
  partial core-charges read in
  partial kinetic energy density read in
  atomic valenz-charges read in
  non local Contribution for L=           0  read in
    real space projection operators read in
  non local Contribution for L=           0  read in
    real space projection operators read in
  non local Contribution for L=           1  read in
    real space projection operators read in
  non local Contribution for L=           1  read in
    real space projection operators read in
    PAW grid and wavefunctions read in
 
   number of l-projection  operators is LMAX  =           4
   number of lm-projection operators is LMMAX =           8
 
 POTCAR:    PAW_PBE H 15Jun2001                   
  local pseudopotential read in
  atomic valenz-charges read in
  non local Contribution for L=           0  read in
    real space projection operators read in
  non local Contribution for L=           0  read in
    real space projection operators read in
  non local Contribution for L=           1  read in
    real space projection operators read in
    PAW grid and wavefunctions read in
 
   number of l-projection  operators is LMAX  =           3
   number of lm-projection operators is LMMAX =           5
 
 Optimization of the real space projectors (new method)

 maximal supplied QI-value         = 25.13
 optimisation between [QCUT,QGAM] = [ 10.05, 20.36] = [ 28.30,116.06] Ry 
 Optimized for a Real-space Cutoff    1.51 Angstroem

   l    n(q)    QCUT    max X(q) W(low)/X(q) W(high)/X(q)  e(spline) 
   0      9    10.053   115.676    0.19E-03    0.21E-03    0.38E-06
   0      9    10.053    87.132    0.19E-03    0.21E-03    0.38E-06
   1      9    10.053     4.429    0.87E-04    0.11E-03    0.39E-06
   1      9    10.053     2.733    0.59E-04    0.62E-04    0.43E-06
 Optimization of the real space projectors (new method)

 maximal supplied QI-value         = 34.20
 optimisation between [QCUT,QGAM] = [  9.92, 20.18] = [ 27.55,114.04] Ry 
 Optimized for a Real-space Cutoff    1.34 Angstroem

   l    n(q)    QCUT    max X(q) W(low)/X(q) W(high)/X(q)  e(spline) 
   0      8     9.919    19.460    0.16E-03    0.20E-03    0.36E-06
   0      8     9.919    12.209    0.16E-03    0.20E-03    0.35E-06
   1      8     9.919     4.655    0.19E-03    0.46E-03    0.40E-06
  PAW_PBE C 08Apr2002                   :
 energy of atom  1       EATOM= -147.1560
 kinetic energy error for atom=    0.0288 (will be added to EATOM!!)
  PAW_PBE H 15Jun2001                   :
 energy of atom  2       EATOM=  -12.4884
 kinetic energy error for atom=    0.0098 (will be added to EATOM!!)
 
 
 POSCAR: C  H                                    
  positions in direct lattice
  velocities in cartesian coordinates
 exchange correlation table for  LEXCH =        8
   RHO(1)=    0.500       N(1)  =     2000
   RHO(2)=  100.500       N(2)  =     4000

 VTST: version 3.0, (09/19/12)

 CHAIN: initializing optimizer
 
 OPT: Using VASP Conjugate-Gradient optimizer
 CHAIN: Read ICHAIN            0
 
 POSCAR: C  H                                    
  positions in direct lattice
  velocities in cartesian coordinates
 


--------------------------------------------------------------------------------------------------------


 ion  position               nearest neighbor table
   1  0.419  0.526  0.634-  10 1.10   2 1.35   3 1.45
   2  0.384  0.472  0.651-   6 1.09   7 1.09   1 1.35
   3  0.469  0.558  0.676-   8 1.10   4 1.35   1 1.45
   4  0.504  0.612  0.658-   9 1.10   3 1.35   5 1.49
   5  0.556  0.646  0.700-  11 1.10  12 1.10  13 1.10   4 1.49
   6  0.346  0.450  0.618-   2 1.09
   7  0.391  0.447  0.699-   2 1.09
   8  0.478  0.535  0.725-   3 1.10
   9  0.495  0.635  0.609-   4 1.10
  10  0.410  0.549  0.585-   1 1.10
  11  0.562  0.620  0.748-   5 1.10
  12  0.543  0.698  0.710-   5 1.10
  13  0.605  0.646  0.675-   5 1.10
 

IMPORTANT INFORMATION: All symmetrisations will be switched off!
NOSYMM: (Re-)initialisation of all symmetry stuff for point group C_1.

 
 
 KPOINTS: K-Point Grid. Created by Vassili Vorotni

Automatic generation of k-mesh.
Space group operators:
 irot       det(A)        alpha          n_x          n_y          n_z        tau_x        tau_y        tau_z
    1     1.000000     0.000001     1.000000     0.000000     0.000000     0.000000     0.000000     0.000000
 
 Subroutine IBZKPT returns following result:
 ===========================================
 
 Found      1 irreducible k-points:
 
 Following reciprocal coordinates:
            Coordinates               Weight
  0.000000  0.000000  0.000000      1.000000
 
 Following cartesian coordinates:
            Coordinates               Weight
  0.000000  0.000000  0.000000      1.000000
 


--------------------------------------------------------------------------------------------------------




 Dimension of arrays:
   k-points           NKPTS =      1   k-points in BZ     NKDIM =      1   number of bands    NBANDS=     21
   number of dos      NEDOS =    301   number of ions     NIONS =     13
   non local maximal  LDIM  =      4   non local SUM 2l+1 LMDIM =      8
   total plane-waves  NPLWV = 941192
   max r-space proj   IRMAX =   1741   max aug-charges    IRDMAX=   1074
   dimension x,y,z NGX =    98 NGY =   98 NGZ =   98
   dimension x,y,z NGXF=   168 NGYF=  168 NGZF=  168
   support grid    NGXF=   168 NGYF=  168 NGZF=  168
   ions per type =               5   8
 NGX,Y,Z   is equivalent  to a cutoff of   8.15,  8.15,  8.15 a.u.
 NGXF,Y,Z  is equivalent  to a cutoff of  13.96, 13.96, 13.96 a.u.


 I would recommend the setting:
   dimension x,y,z NGX =    98 NGY =   98 NGZ =   98
 SYSTEM =  unknown system                          
 POSCAR =  C  H                                    

 Startparameter for this run:
   NWRITE =      1    write-flag & timer
   PREC   = med       normal or accurate (medium, high low for compatibility)
   ISTART =      0    job   : 0-new  1-cont  2-samecut
   ICHARG =      2    charge: 1-file 2-atom 10-const
   ISPIN  =      1    spin polarized calculation?
   LNONCOLLINEAR =      F non collinear calculations
   LSORBIT =      F    spin-orbit coupling
   INIWAV =      1    electr: 0-lowe 1-rand  2-diag
   LASPH  =      F    aspherical Exc in radial PAW
   METAGGA=      F    non-selfconsistent MetaGGA calc.

 Electronic Relaxation 1
   ENCUT  =  400.0 eV  29.40 Ry    5.42 a.u.  32.61 32.61 32.61*2*pi/ulx,y,z
   ENINI  =  400.0     initial cutoff
   ENAUG  =  644.9 eV  augmentation charge cutoff
   NELM   =    400;   NELMIN=  2; NELMDL=-10     # of ELM steps 
   EDIFF  = 0.1E-05   stopping-criterion for ELM
   LREAL  =      T    real-space projection
   NLSPLINE    = F    spline interpolate recip. space projectors
   LCOMPAT=      F    compatible to vasp.4.4
   GGA_COMPAT  = T    GGA compatible to vasp.4.4-vasp.4.6
   LMAXPAW     = -100 max onsite density
   LMAXMIX     =    2 max onsite mixed and CHGCAR
   VOSKOWN=      1    Vosko Wilk Nusair interpolation
   ROPT   =   -0.00020  -0.00020
 Ionic relaxation
   EDIFFG = -.1E-01   stopping-criterion for IOM
   NSW    =    200    number of steps for IOM
   NBLOCK =      1;   KBLOCK =    200    inner block; outer block 
   IBRION =      2    ionic relax: 0-MD 1-quasi-New 2-CG
   NFREE  =      2    steps in history (QN), initial steepest desc. (CG)
   ISIF   =      2    stress and relaxation
   IWAVPR =     11    prediction:  0-non 1-charg 2-wave 3-comb
   ISYM   =      0    0-nonsym 1-usesym 2-fastsym
   LCORR  =      T    Harris-Foulkes like correction to forces

   POTIM  = 0.5000    time-step for ionic-motion
   TEIN   =    0.0    initial temperature
   TEBEG  =    0.0;   TEEND  =   0.0 temperature during run
   SMASS  =  -3.00    Nose mass-parameter (am)
   estimated Nose-frequenzy (Omega)   =  0.10E-29 period in steps =****** mass=  -0.914E-26a.u.
   SCALEE = 1.0000    scale energy and forces
   NPACO  =    256;   APACO  = 16.0  distance and # of slots for P.C.
   PSTRESS=    0.0 pullay stress

  Mass of Ions in am
   POMASS =  12.01  1.00
  Ionic Valenz
   ZVAL   =   4.00  1.00
  Atomic Wigner-Seitz radii
   RWIGS  =  -1.00 -1.00
  virtual crystal weights 
   VCA    =   1.00  1.00
   NELECT =      28.0000    total number of electrons
   NUPDOWN=      -1.0000    fix difference up-down

 DOS related values:
   EMIN   =  10.00;   EMAX   =-10.00  energy-range for DOS
   EFERMI =   0.00
   ISMEAR =     1;   SIGMA  =   0.01  broadening in eV -4-tet -1-fermi 0-gaus

 Electronic relaxation 2 (details)
   IALGO  =     68    algorithm
   LDIAG  =      T    sub-space diagonalisation (order eigenvalues)
   LSUBROT=      T    optimize rotation matrix (better conditioning)
   TURBO    =      0    0=normal 1=particle mesh
   IRESTART =      0    0=no restart 2=restart with 2 vectors
   NREBOOT  =      0    no. of reboots
   NMIN     =      0    reboot dimension
   EREF     =   0.00    reference energy to select bands
   IMIX   =      4    mixing-type and parameters
     AMIX     =   0.40;   BMIX     =  1.00
     AMIX_MAG =   1.60;   BMIX_MAG =  1.00
     AMIN     =   0.10
     WC   =   100.;   INIMIX=   1;  MIXPRE=   1;  MAXMIX= -45

 Intra band minimization:
   WEIMIN = 0.0010     energy-eigenvalue tresh-hold
   EBREAK =  0.12E-07  absolut break condition
   DEPER  =   0.30     relativ break condition  

   TIME   =   0.40     timestep for ELM

  volume/ion in A,a.u.               =     615.38      4152.82
  Fermi-wavevector in a.u.,A,eV,Ry     =   0.248560  0.469710  0.840595  0.061782
  Thomas-Fermi vector in A             =   1.063088
 
 Write flags
   LWAVE  =      F    write WAVECAR
   LCHARG =      F    write CHGCAR
   LVTOT  =      F    write LOCPOT, total local potential
   LVHAR  =      F    write LOCPOT, Hartree potential only
   LELF   =      F    write electronic localiz. function (ELF)
   LORBIT =      0    0 simple, 1 ext, 2 COOP (PROOUT)


 Dipole corrections
   LMONO  =      F    monopole corrections only (constant potential shift)
   LDIPOL =      F    correct potential (dipole corrections)
   IDIPOL =      0    1-x, 2-y, 3-z, 4-all directions 
   EPSILON=  1.0000000 bulk dielectric constant

 Exchange correlation treatment:
   GGA     =    --    GGA type
   LEXCH   =     8    internal setting for exchange type
   VOSKOWN=      1    Vosko Wilk Nusair interpolation
   LHFCALC =     F    Hartree Fock is set to
   LHFONE  =     F    Hartree Fock one center treatment
   AEXX    =    0.0000 exact exchange contribution

 Linear response parameters
   LEPSILON=     F    determine dielectric tensor
   LRPA    =     F    only Hartree local field effects (RPA)
   LNABLA  =     F    use nabla operator in PAW spheres
   LVEL    =     F    velocity operator in full k-point grid
   LINTERFAST=   F  fast interpolation
   KINTER  =     0    interpolate to denser k-point grid
   CSHIFT  =0.1000    complex shift for real part using Kramers Kronig
   OMEGAMAX=  -1.0    maximum frequency
   DEG_THRESHOLD= 0.2000000E-02 threshold for treating states as degnerate
   RTIME   =    0.100 relaxation time in fs

 Orbital magnetization related:
   ORBITALMAG=     F  switch on orbital magnetization
   LCHIMAG   =     F  perturbation theory with respect to B field
   DQ        =  0.001000  dq finite difference perturbation B field



--------------------------------------------------------------------------------------------------------


 conjugate gradient relaxation of ions
   using selective dynamics as specified on POSCAR
 charge density and potential will be updated during run
 non-spin polarized calculation
 RMM-DIIS sequential band-by-band and
  variant of blocked Davidson during initial phase
 perform sub-space diagonalisation
    before iterative eigenvector-optimisation
 modified Broyden-mixing scheme, WC =      100.0
 initial mixing is a Kerker type mixing with AMIX =  0.4000 and BMIX =      1.0000
 Hartree-type preconditioning will be used
 using additional bands            7
 real space projection scheme for non local part
 use partial core corrections
 calculate Harris-corrections to forces 
   (improved forces if not selfconsistent)
 use gradient corrections 
 use of overlap-Matrix (Vanderbilt PP)
 Methfessel and Paxton  Order N= 1 SIGMA  =   0.01


--------------------------------------------------------------------------------------------------------


  energy-cutoff  :      400.00
  volume of cell :     8000.00
      direct lattice vectors                 reciprocal lattice vectors
    16.329931619 -8.164965809 -8.164965809     0.040824829 -0.020412415 -0.020412415
     0.000000000 14.142135624-14.142135624     0.000000000  0.035355339 -0.035355339
    11.547005384 11.547005384 11.547005384     0.028867513  0.028867513  0.028867513

  length of vectors
    20.000000000 20.000000000 20.000000000     0.050000000  0.050000000  0.050000000


 
 k-points in units of 2pi/SCALE and weight: K-Point Grid. Created by Vassili Vorotni
   0.00000000  0.00000000  0.00000000       1.000
 
 k-points in reciprocal lattice and weights: K-Point Grid. Created by Vassili Vorotni
   0.00000000  0.00000000  0.00000000       1.000
 
 position of ions in fractional coordinates (direct lattice) 
   0.41877331  0.52627098  0.63374060
   0.38362636  0.47154755  0.65096915
   0.46883919  0.55786760  0.67552044
   0.50424983  0.61240568  0.65784775
   0.55620345  0.64553623  0.69997197
   0.34647887  0.44963913  0.61760505
   0.39115289  0.44703916  0.69924337
   0.47784296  0.53511524  0.72464653
   0.49472329  0.63468511  0.60862484
   0.40983367  0.54939740  0.58483752
   0.56230045  0.62025693  0.74841545
   0.54346579  0.69833047  0.70961828
   0.60518540  0.64599993  0.67457811
 
 position of ions in cartesian coordinates  (Angst):
  14.15634563 11.34113189 -3.54405931
  13.78133646 11.05313756 -2.28424114
  15.45635008 11.86162140 -3.91725712
  15.83053679 12.13971305 -5.18173535
  17.16534442 12.67045878 -5.58806298
  12.78946514 10.66135828 -2.05635677
  14.46166696 11.20250540 -1.44167150
  16.17064020 12.03359814 -3.10174632
  15.10659186 11.96419844 -5.98740732
  13.44567777 11.17649656 -4.36280850
  17.82428516 12.82255098 -4.72096432
  17.06872521 13.63247064 -6.11929766
  17.67199328 11.98385758 -6.28777967
 


--------------------------------------------------------------------------------------------------------


 k-point  1 :   0.0000 0.0000 0.0000  plane waves:  145165

 maximum and minimum number of plane-waves per node :      7271     7241

 maximum number of plane-waves:    145165
 maximum index in each direction: 
   IXMAX=   32   IYMAX=   32   IZMAX=   32
   IXMIN=  -32   IYMIN=  -32   IZMIN=  -32

 WARNING: aliasing errors must be expected set NGX to 130 to avoid them
 WARNING: aliasing errors must be expected set NGY to 130 to avoid them
 WARNING: aliasing errors must be expected set NGZ to 130 to avoid them
 aliasing errors are usually negligible using standard VASP settings
 and one can safely disregard these warnings

 real space projection operators:
  total allocation   :        872.77 KBytes
  max/ min on nodes  :         53.10         33.84


 parallel 3D FFT for wavefunctions:
    minimum data exchange during FFTs selected (reduces bandwidth)
 parallel 3D FFT for charge:
    minimum data exchange during FFTs selected (reduces bandwidth)


 total amount of memory used by VASP on root node    59309. kBytes
========================================================================

   base      :      30000. kBytes
   nonlr-proj:        432. kBytes
   fftplans  :      10155. kBytes
   grid      :      16274. kBytes
   one-center:          3. kBytes
   wavefun   :       2445. kBytes
 
 Broyden mixing: mesh for mixing (old mesh)
   NGX = 65   NGY = 65   NGZ = 65
  (NGX  =168   NGY  =168   NGZ  =168)
  gives a total of 274625 points

 initial charge density was supplied:
 charge density of overlapping atoms calculated
 number of electron      28.0000000 magnetization 
 keeping initial charge density in first step


--------------------------------------------------------------------------------------------------------


 Maximum index for non-local projection operator          163
 Maximum index for augmentation-charges          102 (set IRDMAX)


--------------------------------------------------------------------------------------------------------


 First call to EWALD:  gamma=   0.089
 Maximum number of real-space cells 3x 3x 3
 Maximum number of reciprocal cells 3x 3x 3

 FEWALD executed in parallel
    FEWALD:  cpu time    0.00: real time    0.00


----------------------------------------- Iteration    1(   1)  ---------------------------------------


    POTLOK:  cpu time    0.35: real time    0.36
    SETDIJ:  cpu time    0.00: real time    0.00
     EDDAV:  cpu time    0.51: real time    0.53
       DOS:  cpu time    0.00: real time    0.00
    --------------------------------------------
      LOOP:  cpu time    0.87: real time    0.90

 eigenvalue-minimisations  :    58
 total energy-change (2. order) : 0.1792679E+03  (-0.5157371E+03)
 number of electron      28.0000000 magnetization 
 augmentation part       28.0000000 magnetization 

 Free energy of the ion-electron system (eV)
  ---------------------------------------------------
  alpha Z        PSCENC =         0.42760457
  Ewald energy   TEWEN  =      1480.56461612
  -1/2 Hartree   DENC   =     -2006.36246810
  -exchange  EXHF       =         0.00000000
  -V(xc)+E(xc)   XCENC  =        82.84734199
  PAW double counting   =       559.68245139     -562.60050270
  entropy T*S    EENTRO =         0.00057979
  eigenvalues    EBANDS =      -210.75691838
  atomic energy  EATOM  =       835.46518068
  ---------------------------------------------------
  free energy    TOTEN  =       179.26788536 eV

  energy without entropy =      179.26730557  energy(sigma->0) =      179.26769210


--------------------------------------------------------------------------------------------------------




----------------------------------------- Iteration    1(   2)  ---------------------------------------


     EDDAV:  cpu time    0.63: real time    0.63
       DOS:  cpu time    0.00: real time    0.00
    --------------------------------------------
      LOOP:  cpu time    0.63: real time    0.66

 eigenvalue-minimisations  :    76
 total energy-change (2. order) :-0.1502022E+03  (-0.1480259E+03)
 number of electron      28.0000000 magnetization 
 augmentation part       28.0000000 magnetization 

 Free energy of the ion-electron system (eV)
  ---------------------------------------------------
  alpha Z        PSCENC =         0.42760457
  Ewald energy   TEWEN  =      1480.56461612
  -1/2 Hartree   DENC   =     -2006.36246810
  -exchange  EXHF       =         0.00000000
  -V(xc)+E(xc)   XCENC  =        82.84734199
  PAW double counting   =       559.68245139     -562.60050270
  entropy T*S    EENTRO =         0.00057979
  eigenvalues    EBANDS =      -360.95914254
  atomic energy  EATOM  =       835.46518068
  ---------------------------------------------------
  free energy    TOTEN  =        29.06566120 eV

  energy without entropy =       29.06508141  energy(sigma->0) =       29.06546794


--------------------------------------------------------------------------------------------------------




----------------------------------------- Iteration    1(   3)  ---------------------------------------


     EDDAV:  cpu time    0.51: real time    0.51
       DOS:  cpu time    0.00: real time    0.00
    --------------------------------------------
      LOOP:  cpu time    0.51: real time    0.53

 eigenvalue-minimisations  :    60
 total energy-change (2. order) :-0.9470959E+02  (-0.9442100E+02)
 number of electron      28.0000000 magnetization 
 augmentation part       28.0000000 magnetization 

 Free energy of the ion-electron system (eV)
  ---------------------------------------------------
  alpha Z        PSCENC =         0.42760457
  Ewald energy   TEWEN  =      1480.56461612
  -1/2 Hartree   DENC   =     -2006.36246810
  -exchange  EXHF       =         0.00000000
  -V(xc)+E(xc)   XCENC  =        82.84734199
  PAW double counting   =       559.68245139     -562.60050270
  entropy T*S    EENTRO =         0.00057979
  eigenvalues    EBANDS =      -455.66872981
  atomic energy  EATOM  =       835.46518068
  ---------------------------------------------------
  free energy    TOTEN  =       -65.64392607 eV

  energy without entropy =      -65.64450587  energy(sigma->0) =      -65.64411934


--------------------------------------------------------------------------------------------------------




----------------------------------------- Iteration    1(   4)  ---------------------------------------


     EDDAV:  cpu time    0.46: real time    0.46
       DOS:  cpu time    0.00: real time    0.00
    --------------------------------------------
      LOOP:  cpu time    0.46: real time    0.49

 eigenvalue-minimisations  :    52
 total energy-change (2. order) :-0.1616049E+02  (-0.1613653E+02)
 number of electron      28.0000000 magnetization 
 augmentation part       28.0000000 magnetization 

 Free energy of the ion-electron system (eV)
  ---------------------------------------------------
  alpha Z        PSCENC =         0.42760457
  Ewald energy   TEWEN  =      1480.56461612
  -1/2 Hartree   DENC   =     -2006.36246810
  -exchange  EXHF       =         0.00000000
  -V(xc)+E(xc)   XCENC  =        82.84734199
  PAW double counting   =       559.68245139     -562.60050270
  entropy T*S    EENTRO =         0.00000000
  eigenvalues    EBANDS =      -471.82863995
  atomic energy  EATOM  =       835.46518068
  ---------------------------------------------------
  free energy    TOTEN  =       -81.80441600 eV

  energy without entropy =      -81.80441600  energy(sigma->0) =      -81.80441600


--------------------------------------------------------------------------------------------------------




----------------------------------------- Iteration    1(   5)  ---------------------------------------


     EDDAV:  cpu time    0.47: real time    0.48
       DOS:  cpu time    0.00: real time    0.00
    --------------------------------------------
      LOOP:  cpu time    0.48: real time    0.50

 eigenvalue-minimisations  :    55
 total energy-change (2. order) :-0.5280767E+00  (-0.5284165E+00)
 number of electron      28.0000000 magnetization 
 augmentation part       28.0000000 magnetization 

 Free energy of the ion-electron system (eV)
  ---------------------------------------------------
  alpha Z        PSCENC =         0.42760457
  Ewald energy   TEWEN  =      1480.56461612
  -1/2 Hartree   DENC   =     -2006.36246810
  -exchange  EXHF       =         0.00000000
  -V(xc)+E(xc)   XCENC  =        82.84734199
  PAW double counting   =       559.68245139     -562.60050270
  entropy T*S    EENTRO =         0.00057979
  eigenvalues    EBANDS =      -472.35729643
  atomic energy  EATOM  =       835.46518068
  ---------------------------------------------------
  free energy    TOTEN  =       -82.33249269 eV

  energy without entropy =      -82.33307248  energy(sigma->0) =      -82.33268596


--------------------------------------------------------------------------------------------------------




----------------------------------------- Iteration    1(   6)  ---------------------------------------


     EDDAV:  cpu time    0.51: real time    0.51
       DOS:  cpu time    0.00: real time    0.00
    --------------------------------------------
      LOOP:  cpu time    0.51: real time    0.54

 eigenvalue-minimisations  :    60
 total energy-change (2. order) :-0.3643313E-02  (-0.3642818E-02)
 number of electron      28.0000000 magnetization 
 augmentation part       28.0000000 magnetization 

 Free energy of the ion-electron system (eV)
  ---------------------------------------------------
  alpha Z        PSCENC =         0.42760457
  Ewald energy   TEWEN  =      1480.56461612
  -1/2 Hartree   DENC   =     -2006.36246810
  -exchange  EXHF       =         0.00000000
  -V(xc)+E(xc)   XCENC  =        82.84734199
  PAW double counting   =       559.68245139     -562.60050270
  entropy T*S    EENTRO =         0.00057979
  eigenvalues    EBANDS =      -472.36093974
  atomic energy  EATOM  =       835.46518068
  ---------------------------------------------------
  free energy    TOTEN  =       -82.33613600 eV

  energy without entropy =      -82.33671579  energy(sigma->0) =      -82.33632927


--------------------------------------------------------------------------------------------------------




----------------------------------------- Iteration    1(   7)  ---------------------------------------


     EDDAV:  cpu time    0.56: real time    0.57
       DOS:  cpu time    0.00: real time    0.00
    --------------------------------------------
      LOOP:  cpu time    0.57: real time    0.59

 eigenvalue-minimisations  :    68
 total energy-change (2. order) :-0.8546470E-04  (-0.8546044E-04)
 number of electron      28.0000000 magnetization 
 augmentation part       28.0000000 magnetization 

 Free energy of the ion-electron system (eV)
  ---------------------------------------------------
  alpha Z        PSCENC =         0.42760457
  Ewald energy   TEWEN  =      1480.56461612
  -1/2 Hartree   DENC   =     -2006.36246810
  -exchange  EXHF       =         0.00000000
  -V(xc)+E(xc)   XCENC  =        82.84734199
  PAW double counting   =       559.68245139     -562.60050270
  entropy T*S    EENTRO =         0.00057979
  eigenvalues    EBANDS =      -472.36102521
  atomic energy  EATOM  =       835.46518068
  ---------------------------------------------------
  free energy    TOTEN  =       -82.33622147 eV

  energy without entropy =      -82.33680126  energy(sigma->0) =      -82.33641473


--------------------------------------------------------------------------------------------------------




----------------------------------------- Iteration    1(   8)  ---------------------------------------


     EDDAV:  cpu time    0.51: real time    0.51
       DOS:  cpu time    0.00: real time    0.00
    --------------------------------------------
      LOOP:  cpu time    0.51: real time    0.54

 eigenvalue-minimisations  :    60
 total energy-change (2. order) :-0.3708293E-05  (-0.3709685E-05)
 number of electron      28.0000000 magnetization 
 augmentation part       28.0000000 magnetization 

 Free energy of the ion-electron system (eV)
  ---------------------------------------------------
  alpha Z        PSCENC =         0.42760457
  Ewald energy   TEWEN  =      1480.56461612
  -1/2 Hartree   DENC   =     -2006.36246810
  -exchange  EXHF       =         0.00000000
  -V(xc)+E(xc)   XCENC  =        82.84734199
  PAW double counting   =       559.68245139     -562.60050270
  entropy T*S    EENTRO =         0.00057979
  eigenvalues    EBANDS =      -472.36102892
  atomic energy  EATOM  =       835.46518068
  ---------------------------------------------------
  free energy    TOTEN  =       -82.33622518 eV

  energy without entropy =      -82.33680497  energy(sigma->0) =      -82.33641844


--------------------------------------------------------------------------------------------------------




----------------------------------------- Iteration    1(   9)  ---------------------------------------


     EDDAV:  cpu time    0.57: real time    0.57
       DOS:  cpu time    0.00: real time    0.00
    --------------------------------------------
      LOOP:  cpu time    0.57: real time    0.59

 eigenvalue-minimisations  :    68
 total energy-change (2. order) :-0.2115679E-06  (-0.2109228E-06)
 number of electron      28.0000000 magnetization 
 augmentation part       28.0000000 magnetization 

 Free energy of the ion-electron system (eV)
  ---------------------------------------------------
  alpha Z        PSCENC =         0.42760457
  Ewald energy   TEWEN  =      1480.56461612
  -1/2 Hartree   DENC   =     -2006.36246810
  -exchange  EXHF       =         0.00000000
  -V(xc)+E(xc)   XCENC  =        82.84734199
  PAW double counting   =       559.68245139     -562.60050270
  entropy T*S    EENTRO =         0.00057979
  eigenvalues    EBANDS =      -472.36102913
  atomic energy  EATOM  =       835.46518068
  ---------------------------------------------------
  free energy    TOTEN  =       -82.33622539 eV

  energy without entropy =      -82.33680518  energy(sigma->0) =      -82.33641865


--------------------------------------------------------------------------------------------------------




----------------------------------------- Iteration    1(  10)  ---------------------------------------


     EDDAV:  cpu time    0.46: real time    0.46
       DOS:  cpu time    0.00: real time    0.00
    CHARGE:  cpu time    0.04: real time    0.04
    MIXING:  cpu time    0.01: real time    0.01
    --------------------------------------------
      LOOP:  cpu time    0.51: real time    0.53

 eigenvalue-minimisations  :    52
 total energy-change (2. order) :-0.1137221E-07  (-0.1106082E-07)
 number of electron      28.0000071 magnetization 
 augmentation part        0.7476537 magnetization 

 Broyden mixing:
  rms(total) = 0.14261E+01    rms(broyden)= 0.14257E+01
  rms(prec ) = 0.15774E+01
  weight for this iteration     100.00

 Free energy of the ion-electron system (eV)
  ---------------------------------------------------
  alpha Z        PSCENC =         0.42760457
  Ewald energy   TEWEN  =      1480.56461612
  -1/2 Hartree   DENC   =     -2006.36246810
  -exchange  EXHF       =         0.00000000
  -V(xc)+E(xc)   XCENC  =        82.84734199
  PAW double counting   =       559.68245139     -562.60050270
  entropy T*S    EENTRO =         0.00057979
  eigenvalues    EBANDS =      -472.36102914
  atomic energy  EATOM  =       835.46518068
  ---------------------------------------------------
  free energy    TOTEN  =       -82.33622540 eV

  energy without entropy =      -82.33680519  energy(sigma->0) =      -82.33641866


--------------------------------------------------------------------------------------------------------




----------------------------------------- Iteration    1(  11)  ---------------------------------------


    POTLOK:  cpu time    0.22: real time    0.22
    SETDIJ:  cpu time    0.00: real time    0.00
    EDDIAG:  cpu time    0.06: real time    0.06
  RMM-DIIS:  cpu time    0.30: real time    0.30
    ORTHCH:  cpu time    0.00: real time    0.00
       DOS:  cpu time    0.00: real time    0.00
    CHARGE:  cpu time    0.04: real time    0.04
    MIXING:  cpu time    0.01: real time    0.01
    --------------------------------------------
      LOOP:  cpu time    0.64: real time    0.67

 eigenvalue-minimisations  :    42
 total energy-change (2. order) : 0.6742483E+01  (-0.1129741E+01)
 number of electron      28.0000054 magnetization 
 augmentation part        0.6913079 magnetization 

 Broyden mixing:
  rms(total) = 0.77169E+00    rms(broyden)= 0.77161E+00
  rms(prec ) = 0.83609E+00
  weight for this iteration     100.00

 eigenvalues of (default mixing * dielectric matrix)
  average eigenvalue GAMMA=   1.6493
  1.6493

 Free energy of the ion-electron system (eV)
  ---------------------------------------------------
  alpha Z        PSCENC =         0.42760457
  Ewald energy   TEWEN  =      1480.56461612
  -1/2 Hartree   DENC   =     -2067.34709257
  -exchange  EXHF       =         0.00000000
  -V(xc)+E(xc)   XCENC  =        85.88677433
  PAW double counting   =      1068.32870028    -1071.80651424
  entropy T*S    EENTRO =         0.00000000
  eigenvalues    EBANDS =      -407.11301151
  atomic energy  EATOM  =       835.46518068
  ---------------------------------------------------
  free energy    TOTEN  =       -75.59374233 eV

  energy without entropy =      -75.59374233  energy(sigma->0) =      -75.59374233


--------------------------------------------------------------------------------------------------------




----------------------------------------- Iteration    1(  12)  ---------------------------------------


    POTLOK:  cpu time    0.23: real time    0.23
    SETDIJ:  cpu time    0.00: real time    0.00
    EDDIAG:  cpu time    0.06: real time    0.06
  RMM-DIIS:  cpu time    0.29: real time    0.29
    ORTHCH:  cpu time    0.00: real time    0.00
       DOS:  cpu time    0.00: real time    0.00
    CHARGE:  cpu time    0.04: real time    0.04
    MIXING:  cpu time    0.01: real time    0.01
    --------------------------------------------
      LOOP:  cpu time    0.64: real time    0.64

 eigenvalue-minimisations  :    42
 total energy-change (2. order) : 0.1664325E+01  (-0.6448876E+00)
 number of electron      28.0000044 magnetization 
 augmentation part        0.6480228 magnetization 

 Broyden mixing:
  rms(total) = 0.32276E+00    rms(broyden)= 0.32260E+00
  rms(prec ) = 0.34007E+00
  weight for this iteration     100.00

 eigenvalues of (default mixing * dielectric matrix)
  average eigenvalue GAMMA=   1.8476
  1.7737  1.9215

 Free energy of the ion-electron system (eV)
  ---------------------------------------------------
  alpha Z        PSCENC =         0.42760457
  Ewald energy   TEWEN  =      1480.56461612
  -1/2 Hartree   DENC   =     -2119.47836703
  -exchange  EXHF       =         0.00000000
  -V(xc)+E(xc)   XCENC  =        88.79889634
  PAW double counting   =      1769.22665761    -1772.97290216
  entropy T*S    EENTRO =         0.00057979
  eigenvalues    EBANDS =      -355.96168283
  atomic energy  EATOM  =       835.46518068
  ---------------------------------------------------
  free energy    TOTEN  =       -73.92941691 eV

  energy without entropy =      -73.92999670  energy(sigma->0) =      -73.92961018


--------------------------------------------------------------------------------------------------------




----------------------------------------- Iteration    1(  13)  ---------------------------------------


    POTLOK:  cpu time    0.23: real time    0.23
    SETDIJ:  cpu time    0.00: real time    0.00
    EDDIAG:  cpu time    0.06: real time    0.06
  RMM-DIIS:  cpu time    0.30: real time    0.30
    ORTHCH:  cpu time    0.00: real time    0.00
       DOS:  cpu time    0.00: real time    0.00
    CHARGE:  cpu time    0.04: real time    0.04
    MIXING:  cpu time    0.01: real time    0.01
    --------------------------------------------
      LOOP:  cpu time    0.65: real time    0.65

 eigenvalue-minimisations  :    42
 total energy-change (2. order) : 0.2064470E+00  (-0.3842505E-01)
 number of electron      28.0000044 magnetization 
 augmentation part        0.6416445 magnetization 

 Broyden mixing:
  rms(total) = 0.62280E-01    rms(broyden)= 0.62239E-01
  rms(prec ) = 0.77594E-01
  weight for this iteration     100.00

 eigenvalues of (default mixing * dielectric matrix)
  average eigenvalue GAMMA=   1.6411
  0.9406  2.1811  1.8016

 Free energy of the ion-electron system (eV)
  ---------------------------------------------------
  alpha Z        PSCENC =         0.42760457
  Ewald energy   TEWEN  =      1480.56461612
  -1/2 Hartree   DENC   =     -2130.75991444
  -exchange  EXHF       =         0.00000000
  -V(xc)+E(xc)   XCENC  =        89.59889367
  PAW double counting   =      2108.35778171    -2111.98388105
  entropy T*S    EENTRO =         0.00057979
  eigenvalues    EBANDS =      -345.39383094
  atomic energy  EATOM  =       835.46518068
  ---------------------------------------------------
  free energy    TOTEN  =       -73.72296988 eV

  energy without entropy =      -73.72354967  energy(sigma->0) =      -73.72316315


--------------------------------------------------------------------------------------------------------




----------------------------------------- Iteration    1(  14)  ---------------------------------------


    POTLOK:  cpu time    0.23: real time    0.23
    SETDIJ:  cpu time    0.00: real time    0.00
    EDDIAG:  cpu time    0.06: real time    0.06
  RMM-DIIS:  cpu time    0.31: real time    0.31
    ORTHCH:  cpu time    0.00: real time    0.00
       DOS:  cpu time    0.00: real time    0.00
    CHARGE:  cpu time    0.04: real time    0.04
    MIXING:  cpu time    0.01: real time    0.01
    --------------------------------------------
      LOOP:  cpu time    0.66: real time    0.66

 eigenvalue-minimisations  :    44
 total energy-change (2. order) : 0.1969197E-01  (-0.4424268E-02)
 number of electron      28.0000044 magnetization 
 augmentation part        0.6395315 magnetization 

 Broyden mixing:
  rms(total) = 0.29328E-01    rms(broyden)= 0.29316E-01
  rms(prec ) = 0.44551E-01
  weight for this iteration     100.00

 eigenvalues of (default mixing * dielectric matrix)
  average eigenvalue GAMMA=   1.7381
  2.2006  2.2006  0.8879  1.6633

 Free energy of the ion-electron system (eV)
  ---------------------------------------------------
  alpha Z        PSCENC =         0.42760457
  Ewald energy   TEWEN  =      1480.56461612
  -1/2 Hartree   DENC   =     -2135.03087884
  -exchange  EXHF       =         0.00000000
  -V(xc)+E(xc)   XCENC  =        89.79075608
  PAW double counting   =      2168.90272590    -2172.50398395
  entropy T*S    EENTRO =         0.00057979
  eigenvalues    EBANDS =      -341.31987826
  atomic energy  EATOM  =       835.46518068
  ---------------------------------------------------
  free energy    TOTEN  =       -73.70327791 eV

  energy without entropy =      -73.70385770  energy(sigma->0) =      -73.70347117


--------------------------------------------------------------------------------------------------------




----------------------------------------- Iteration    1(  15)  ---------------------------------------


    POTLOK:  cpu time    0.24: real time    0.25
    SETDIJ:  cpu time    0.00: real time    0.00
    EDDIAG:  cpu time    0.06: real time    0.06
  RMM-DIIS:  cpu time    0.29: real time    0.29
    ORTHCH:  cpu time    0.00: real time    0.00
       DOS:  cpu time    0.00: real time    0.00
    CHARGE:  cpu time    0.04: real time    0.04
    MIXING:  cpu time    0.01: real time    0.01
    --------------------------------------------
      LOOP:  cpu time    0.66: real time    0.66

 eigenvalue-minimisations  :    42
 total energy-change (2. order) : 0.6906804E-02  (-0.2479390E-02)
 number of electron      28.0000044 magnetization 
 augmentation part        0.6378923 magnetization 

 Broyden mixing:
  rms(total) = 0.18655E-01    rms(broyden)= 0.18651E-01
  rms(prec ) = 0.28514E-01
  weight for this iteration     100.00

 eigenvalues of (default mixing * dielectric matrix)
  average eigenvalue GAMMA=   1.6864
  2.3202  2.3202  0.9109  1.4405  1.4405

 Free energy of the ion-electron system (eV)
  ---------------------------------------------------
  alpha Z        PSCENC =         0.42760457
  Ewald energy   TEWEN  =      1480.56461612
  -1/2 Hartree   DENC   =     -2140.24909660
  -exchange  EXHF       =         0.00000000
  -V(xc)+E(xc)   XCENC  =        89.89423068
  PAW double counting   =      2156.49049244    -2160.09138733
  entropy T*S    EENTRO =         0.00057979
  eigenvalues    EBANDS =      -336.19859146
  atomic energy  EATOM  =       835.46518068
  ---------------------------------------------------
  free energy    TOTEN  =       -73.69637110 eV

  energy without entropy =      -73.69695089  energy(sigma->0) =      -73.69656437


--------------------------------------------------------------------------------------------------------




----------------------------------------- Iteration    1(  16)  ---------------------------------------


    POTLOK:  cpu time    0.26: real time    0.26
    SETDIJ:  cpu time    0.00: real time    0.00
    EDDIAG:  cpu time    0.06: real time    0.06
  RMM-DIIS:  cpu time    0.29: real time    0.30
    ORTHCH:  cpu time    0.00: real time    0.00
       DOS:  cpu time    0.00: real time    0.00
    CHARGE:  cpu time    0.04: real time    0.04
    MIXING:  cpu time    0.01: real time    0.01
    --------------------------------------------
      LOOP:  cpu time    0.67: real time    0.67

 eigenvalue-minimisations  :    42
 total energy-change (2. order) : 0.8785671E-03  (-0.5357605E-03)
 number of electron      28.0000044 magnetization 
 augmentation part        0.6379542 magnetization 

 Broyden mixing:
  rms(total) = 0.12141E-01    rms(broyden)= 0.12139E-01
  rms(prec ) = 0.19838E-01
  weight for this iteration     100.00

 eigenvalues of (default mixing * dielectric matrix)
  average eigenvalue GAMMA=   1.8660
  3.4960  2.4720  1.7311  1.6070  0.9449  0.9449

 Free energy of the ion-electron system (eV)
  ---------------------------------------------------
  alpha Z        PSCENC =         0.42760457
  Ewald energy   TEWEN  =      1480.56461612
  -1/2 Hartree   DENC   =     -2142.06055218
  -exchange  EXHF       =         0.00000000
  -V(xc)+E(xc)   XCENC  =        89.93056310
  PAW double counting   =      2161.16096916    -2164.74740549
  entropy T*S    EENTRO =         0.00057979
  eigenvalues    EBANDS =      -334.43704829
  atomic energy  EATOM  =       835.46518068
  ---------------------------------------------------
  free energy    TOTEN  =       -73.69549254 eV

  energy without entropy =      -73.69607233  energy(sigma->0) =      -73.69568580


--------------------------------------------------------------------------------------------------------




----------------------------------------- Iteration    1(  17)  ---------------------------------------


    POTLOK:  cpu time    0.28: real time    0.28
    SETDIJ:  cpu time    0.00: real time    0.00
    EDDIAG:  cpu time    0.07: real time    0.07
  RMM-DIIS:  cpu time    0.29: real time    0.29
    ORTHCH:  cpu time    0.00: real time    0.00
       DOS:  cpu time    0.00: real time    0.00
    CHARGE:  cpu time    0.04: real time    0.04
    MIXING:  cpu time    0.01: real time    0.01
    --------------------------------------------
      LOOP:  cpu time    0.70: real time    0.70

 eigenvalue-minimisations  :    42
 total energy-change (2. order) :-0.5018231E-04  (-0.7343938E-03)
 number of electron      28.0000044 magnetization 
 augmentation part        0.6371817 magnetization 

 Broyden mixing:
  rms(total) = 0.58453E-02    rms(broyden)= 0.58439E-02
  rms(prec ) = 0.94561E-02
  weight for this iteration     100.00

 eigenvalues of (default mixing * dielectric matrix)
  average eigenvalue GAMMA=   1.9260
  3.9577  2.2922  1.8327  1.8327  1.6968  0.9350  0.9350

 Free energy of the ion-electron system (eV)
  ---------------------------------------------------
  alpha Z        PSCENC =         0.42760457
  Ewald energy   TEWEN  =      1480.56461612
  -1/2 Hartree   DENC   =     -2146.24704577
  -exchange  EXHF       =         0.00000000
  -V(xc)+E(xc)   XCENC  =        90.00575888
  PAW double counting   =      2146.86072096    -2150.45150085
  entropy T*S    EENTRO =         0.00057979
  eigenvalues    EBANDS =      -330.32145710
  atomic energy  EATOM  =       835.46518068
  ---------------------------------------------------
  free energy    TOTEN  =       -73.69554272 eV

  energy without entropy =      -73.69612251  energy(sigma->0) =      -73.69573598


--------------------------------------------------------------------------------------------------------




----------------------------------------- Iteration    1(  18)  ---------------------------------------


    POTLOK:  cpu time    0.29: real time    0.29
    SETDIJ:  cpu time    0.00: real time    0.00
    EDDIAG:  cpu time    0.07: real time    0.07
  RMM-DIIS:  cpu time    0.30: real time    0.30
    ORTHCH:  cpu time    0.00: real time    0.00
       DOS:  cpu time    0.00: real time    0.00
    CHARGE:  cpu time    0.04: real time    0.04
    MIXING:  cpu time    0.01: real time    0.01
    --------------------------------------------
      LOOP:  cpu time    0.72: real time    0.72

 eigenvalue-minimisations  :    42
 total energy-change (2. order) :-0.7447912E-02  (-0.2881023E-03)
 number of electron      28.0000044 magnetization 
 augmentation part        0.6367034 magnetization 

 Broyden mixing:
  rms(total) = 0.73701E-02    rms(broyden)= 0.73682E-02
  rms(prec ) = 0.93068E-02
  weight for this iteration     100.00

 eigenvalues of (default mixing * dielectric matrix)
  average eigenvalue GAMMA=   2.0428
  5.3428  2.6698  2.3614  1.7567  1.1923  0.9143  1.0527  1.0527

 Free energy of the ion-electron system (eV)
  ---------------------------------------------------
  alpha Z        PSCENC =         0.42760457
  Ewald energy   TEWEN  =      1480.56461612
  -1/2 Hartree   DENC   =     -2147.51268659
  -exchange  EXHF       =         0.00000000
  -V(xc)+E(xc)   XCENC  =        90.02379492
  PAW double counting   =      2148.89379735    -2152.48505630
  entropy T*S    EENTRO =         0.00057979
  eigenvalues    EBANDS =      -329.08082117
  atomic energy  EATOM  =       835.46518068
  ---------------------------------------------------
  free energy    TOTEN  =       -73.70299063 eV

  energy without entropy =      -73.70357042  energy(sigma->0) =      -73.70318389


--------------------------------------------------------------------------------------------------------




----------------------------------------- Iteration    1(  19)  ---------------------------------------


    POTLOK:  cpu time    0.32: real time    0.32
    SETDIJ:  cpu time    0.00: real time    0.00
    EDDIAG:  cpu time    0.07: real time    0.08
  RMM-DIIS:  cpu time    0.32: real time    0.33
    ORTHCH:  cpu time    0.00: real time    0.00
       DOS:  cpu time    0.00: real time    0.00
    CHARGE:  cpu time    0.04: real time    0.04
    MIXING:  cpu time    0.02: real time    0.02
    --------------------------------------------
      LOOP:  cpu time    0.77: real time    0.79

 eigenvalue-minimisations  :    42
 total energy-change (2. order) :-0.6497310E-02  (-0.1737525E-03)
 number of electron      28.0000044 magnetization 
 augmentation part        0.6367639 magnetization 

 Broyden mixing:
  rms(total) = 0.20961E-02    rms(broyden)= 0.20950E-02
  rms(prec ) = 0.34266E-02
  weight for this iteration     100.00

 eigenvalues of (default mixing * dielectric matrix)
  average eigenvalue GAMMA=   2.1567
  5.8397  2.9147  2.3523  2.3523  1.7293  1.1982  0.9179  1.0530  1.0530

 Free energy of the ion-electron system (eV)
  ---------------------------------------------------
  alpha Z        PSCENC =         0.42760457
  Ewald energy   TEWEN  =      1480.56461612
  -1/2 Hartree   DENC   =     -2147.95566908
  -exchange  EXHF       =         0.00000000
  -V(xc)+E(xc)   XCENC  =        90.01466246
  PAW double counting   =      2146.04734996    -2149.63713333
  entropy T*S    EENTRO =         0.00000000
  eigenvalues    EBANDS =      -328.63609932
  atomic energy  EATOM  =       835.46518068
  ---------------------------------------------------
  free energy    TOTEN  =       -73.70948794 eV

  energy without entropy =      -73.70948794  energy(sigma->0) =      -73.70948794


--------------------------------------------------------------------------------------------------------




----------------------------------------- Iteration    1(  20)  ---------------------------------------


    POTLOK:  cpu time    0.32: real time    0.32
    SETDIJ:  cpu time    0.00: real time    0.00
    EDDIAG:  cpu time    0.07: real time    0.07
  RMM-DIIS:  cpu time    0.32: real time    0.32
    ORTHCH:  cpu time    0.00: real time    0.00
       DOS:  cpu time    0.00: real time    0.00
    CHARGE:  cpu time    0.04: real time    0.04
    MIXING:  cpu time    0.02: real time    0.02
    --------------------------------------------
      LOOP:  cpu time    0.78: real time    0.78

 eigenvalue-minimisations  :    42
 total energy-change (2. order) :-0.4420933E-02  (-0.1040017E-03)
 number of electron      28.0000044 magnetization 
 augmentation part        0.6368176 magnetization 

 Broyden mixing:
  rms(total) = 0.24214E-02    rms(broyden)= 0.24205E-02
  rms(prec ) = 0.29213E-02
  weight for this iteration     100.00

 eigenvalues of (default mixing * dielectric matrix)
  average eigenvalue GAMMA=   2.2216
  6.7983  3.7907  2.3320  2.3320  1.6654  1.1883  1.1883  1.0796  0.9210  0.9210

 Free energy of the ion-electron system (eV)
  ---------------------------------------------------
  alpha Z        PSCENC =         0.42760457
  Ewald energy   TEWEN  =      1480.56461612
  -1/2 Hartree   DENC   =     -2147.90054260
  -exchange  EXHF       =         0.00000000
  -V(xc)+E(xc)   XCENC  =        89.99391382
  PAW double counting   =      2145.37746620    -2148.96673368
  entropy T*S    EENTRO =         0.00057979
  eigenvalues    EBANDS =      -328.67599378
  atomic energy  EATOM  =       835.46518068
  ---------------------------------------------------
  free energy    TOTEN  =       -73.71390887 eV

  energy without entropy =      -73.71448867  energy(sigma->0) =      -73.71410214


--------------------------------------------------------------------------------------------------------




----------------------------------------- Iteration    1(  21)  ---------------------------------------


    POTLOK:  cpu time    0.33: real time    0.33
    SETDIJ:  cpu time    0.00: real time    0.00
    EDDIAG:  cpu time    0.08: real time    0.08
  RMM-DIIS:  cpu time    0.32: real time    0.32
    ORTHCH:  cpu time    0.00: real time    0.00
       DOS:  cpu time    0.00: real time    0.00
    CHARGE:  cpu time    0.04: real time    0.04
    MIXING:  cpu time    0.02: real time    0.02
    --------------------------------------------
      LOOP:  cpu time    0.79: real time    0.79

 eigenvalue-minimisations  :    43
 total energy-change (2. order) :-0.8608002E-03  (-0.2332152E-04)
 number of electron      28.0000044 magnetization 
 augmentation part        0.6367809 magnetization 

 Broyden mixing:
  rms(total) = 0.96281E-03    rms(broyden)= 0.96256E-03
  rms(prec ) = 0.13190E-02
  weight for this iteration     100.00

 eigenvalues of (default mixing * dielectric matrix)
  average eigenvalue GAMMA=   2.3434
  7.0146  4.4178  2.5448  2.5448  2.4025  1.6055  1.2007  1.2007  0.9615  0.9615
  0.9233

 Free energy of the ion-electron system (eV)
  ---------------------------------------------------
  alpha Z        PSCENC =         0.42760457
  Ewald energy   TEWEN  =      1480.56461612
  -1/2 Hartree   DENC   =     -2148.10251807
  -exchange  EXHF       =         0.00000000
  -V(xc)+E(xc)   XCENC  =        89.99836392
  PAW double counting   =      2147.52926670    -2151.11826343
  entropy T*S    EENTRO =         0.00057979
  eigenvalues    EBANDS =      -328.47959996
  atomic energy  EATOM  =       835.46518068
  ---------------------------------------------------
  free energy    TOTEN  =       -73.71476967 eV

  energy without entropy =      -73.71534947  energy(sigma->0) =      -73.71496294


--------------------------------------------------------------------------------------------------------




----------------------------------------- Iteration    1(  22)  ---------------------------------------


    POTLOK:  cpu time    0.33: real time    0.33
    SETDIJ:  cpu time    0.00: real time    0.00
    EDDIAG:  cpu time    0.07: real time    0.07
  RMM-DIIS:  cpu time    0.31: real time    0.31
    ORTHCH:  cpu time    0.00: real time    0.00
       DOS:  cpu time    0.00: real time    0.00
    CHARGE:  cpu time    0.04: real time    0.04
    MIXING:  cpu time    0.02: real time    0.02
    --------------------------------------------
      LOOP:  cpu time    0.78: real time    0.78

 eigenvalue-minimisations  :    42
 total energy-change (2. order) :-0.1040583E-02  (-0.1368850E-04)
 number of electron      28.0000044 magnetization 
 augmentation part        0.6366953 magnetization 

 Broyden mixing:
  rms(total) = 0.10897E-02    rms(broyden)= 0.10895E-02
  rms(prec ) = 0.12425E-02
  weight for this iteration     100.00

 eigenvalues of (default mixing * dielectric matrix)
  average eigenvalue GAMMA=   2.2811
  7.5991  4.7162  2.6332  2.2981  2.2981  1.7393  1.1601  1.1601  0.9945  0.9157
  0.9296  0.9296

 Free energy of the ion-electron system (eV)
  ---------------------------------------------------
  alpha Z        PSCENC =         0.42760457
  Ewald energy   TEWEN  =      1480.56461612
  -1/2 Hartree   DENC   =     -2148.21169812
  -exchange  EXHF       =         0.00000000
  -V(xc)+E(xc)   XCENC  =        89.99950956
  PAW double counting   =      2146.73957544    -2150.32988098
  entropy T*S    EENTRO =         0.00057979
  eigenvalues    EBANDS =      -328.37129732
  atomic energy  EATOM  =       835.46518068
  ---------------------------------------------------
  free energy    TOTEN  =       -73.71581026 eV

  energy without entropy =      -73.71639005  energy(sigma->0) =      -73.71600352


--------------------------------------------------------------------------------------------------------




----------------------------------------- Iteration    1(  23)  ---------------------------------------


    POTLOK:  cpu time    0.33: real time    0.33
    SETDIJ:  cpu time    0.00: real time    0.00
    EDDIAG:  cpu time    0.07: real time    0.07
  RMM-DIIS:  cpu time    0.32: real time    0.32
    ORTHCH:  cpu time    0.00: real time    0.00
       DOS:  cpu time    0.00: real time    0.00
    CHARGE:  cpu time    0.04: real time    0.04
    MIXING:  cpu time    0.02: real time    0.02
    --------------------------------------------
      LOOP:  cpu time    0.78: real time    0.79

 eigenvalue-minimisations  :    42
 total energy-change (2. order) :-0.1046244E-03  (-0.1795402E-05)
 number of electron      28.0000044 magnetization 
 augmentation part        0.6367097 magnetization 

 Broyden mixing:
  rms(total) = 0.38230E-03    rms(broyden)= 0.38224E-03
  rms(prec ) = 0.51678E-03
  weight for this iteration     100.00

 eigenvalues of (default mixing * dielectric matrix)
  average eigenvalue GAMMA=   2.3247
  7.7861  5.3260  2.9022  2.2143  2.0286  2.0286  1.6538  1.2282  1.2282  0.9655
  0.9655  0.9472  0.9472

 Free energy of the ion-electron system (eV)
  ---------------------------------------------------
  alpha Z        PSCENC =         0.42760457
  Ewald energy   TEWEN  =      1480.56461612
  -1/2 Hartree   DENC   =     -2148.18595698
  -exchange  EXHF       =         0.00000000
  -V(xc)+E(xc)   XCENC  =        89.99788096
  PAW double counting   =      2146.88644031    -2150.47606978
  entropy T*S    EENTRO =         0.00057979
  eigenvalues    EBANDS =      -328.39619055
  atomic energy  EATOM  =       835.46518068
  ---------------------------------------------------
  free energy    TOTEN  =       -73.71591488 eV

  energy without entropy =      -73.71649467  energy(sigma->0) =      -73.71610815


--------------------------------------------------------------------------------------------------------




----------------------------------------- Iteration    1(  24)  ---------------------------------------


    POTLOK:  cpu time    0.33: real time    0.33
    SETDIJ:  cpu time    0.00: real time    0.00
    EDDIAG:  cpu time    0.07: real time    0.08
  RMM-DIIS:  cpu time    0.30: real time    0.30
    ORTHCH:  cpu time    0.00: real time    0.00
       DOS:  cpu time    0.00: real time    0.00
    CHARGE:  cpu time    0.04: real time    0.04
    MIXING:  cpu time    0.02: real time    0.02
    --------------------------------------------
      LOOP:  cpu time    0.77: real time    0.77

 eigenvalue-minimisations  :    39
 total energy-change (2. order) :-0.2358963E-03  (-0.1339943E-05)
 number of electron      28.0000044 magnetization 
 augmentation part        0.6367343 magnetization 

 Broyden mixing:
  rms(total) = 0.24284E-03    rms(broyden)= 0.24265E-03
  rms(prec ) = 0.31048E-03
  weight for this iteration     100.00

 eigenvalues of (default mixing * dielectric matrix)
  average eigenvalue GAMMA=   2.3336
  8.0858  5.7926  3.3845  2.3761  2.1929  1.8413  1.8413  1.2133  1.2133  1.0070
  1.0070  0.9356  0.9356  0.8443

 Free energy of the ion-electron system (eV)
  ---------------------------------------------------
  alpha Z        PSCENC =         0.42760457
  Ewald energy   TEWEN  =      1480.56461612
  -1/2 Hartree   DENC   =     -2148.16978928
  -exchange  EXHF       =         0.00000000
  -V(xc)+E(xc)   XCENC  =        89.99644637
  PAW double counting   =      2146.95133508    -2150.54067044
  entropy T*S    EENTRO =         0.00057979
  eigenvalues    EBANDS =      -328.41145368
  atomic energy  EATOM  =       835.46518068
  ---------------------------------------------------
  free energy    TOTEN  =       -73.71615078 eV

  energy without entropy =      -73.71673057  energy(sigma->0) =      -73.71634404


--------------------------------------------------------------------------------------------------------




----------------------------------------- Iteration    1(  25)  ---------------------------------------


    POTLOK:  cpu time    0.33: real time    0.33
    SETDIJ:  cpu time    0.00: real time    0.00
    EDDIAG:  cpu time    0.07: real time    0.08
  RMM-DIIS:  cpu time    0.23: real time    0.23
    ORTHCH:  cpu time    0.00: real time    0.00
       DOS:  cpu time    0.00: real time    0.00
    CHARGE:  cpu time    0.04: real time    0.04
    MIXING:  cpu time    0.02: real time    0.02
    --------------------------------------------
      LOOP:  cpu time    0.70: real time    0.70

 eigenvalue-minimisations  :    30
 total energy-change (2. order) :-0.6713205E-04  (-0.1997487E-06)
 number of electron      28.0000044 magnetization 
 augmentation part        0.6367311 magnetization 

 Broyden mixing:
  rms(total) = 0.12364E-03    rms(broyden)= 0.12361E-03
  rms(prec ) = 0.16811E-03
  weight for this iteration     100.00

 eigenvalues of (default mixing * dielectric matrix)
  average eigenvalue GAMMA=   2.4359
  8.7595  6.0197  4.0115  2.7024  2.1532  2.1532  1.7035  1.7035  1.2345  1.2345
  1.0197  1.0197  0.9089  0.9575  0.9575

 Free energy of the ion-electron system (eV)
  ---------------------------------------------------
  alpha Z        PSCENC =         0.42760457
  Ewald energy   TEWEN  =      1480.56461612
  -1/2 Hartree   DENC   =     -2148.19413152
  -exchange  EXHF       =         0.00000000
  -V(xc)+E(xc)   XCENC  =        89.99695528
  PAW double counting   =      2146.76300825    -2150.35250536
  entropy T*S    EENTRO =         0.00057979
  eigenvalues    EBANDS =      -328.38752572
  atomic energy  EATOM  =       835.46518068
  ---------------------------------------------------
  free energy    TOTEN  =       -73.71621791 eV

  energy without entropy =      -73.71679770  energy(sigma->0) =      -73.71641117


--------------------------------------------------------------------------------------------------------




----------------------------------------- Iteration    1(  26)  ---------------------------------------


    POTLOK:  cpu time    0.33: real time    0.33
    SETDIJ:  cpu time    0.00: real time    0.00
    EDDIAG:  cpu time    0.08: real time    0.08
  RMM-DIIS:  cpu time    0.23: real time    0.23
    ORTHCH:  cpu time    0.00: real time    0.00
       DOS:  cpu time    0.00: real time    0.00
    CHARGE:  cpu time    0.04: real time    0.04
    MIXING:  cpu time    0.03: real time    0.03
    --------------------------------------------
      LOOP:  cpu time    0.70: real time    0.70

 eigenvalue-minimisations  :    29
 total energy-change (2. order) :-0.6019680E-04  (-0.1336775E-06)
 number of electron      28.0000044 magnetization 
 augmentation part        0.6367263 magnetization 

 Broyden mixing:
  rms(total) = 0.86768E-04    rms(broyden)= 0.86751E-04
  rms(prec ) = 0.10264E-03
  weight for this iteration     100.00

 eigenvalues of (default mixing * dielectric matrix)
  average eigenvalue GAMMA=   2.4245
  8.8382  6.2832  4.3270  2.7445  2.4600  2.1550  1.6611  1.5114  1.5114  1.2103
  1.2103  1.1054  0.9324  0.9324  0.9547  0.9547

 Free energy of the ion-electron system (eV)
  ---------------------------------------------------
  alpha Z        PSCENC =         0.42760457
  Ewald energy   TEWEN  =      1480.56461612
  -1/2 Hartree   DENC   =     -2148.21138291
  -exchange  EXHF       =         0.00000000
  -V(xc)+E(xc)   XCENC  =        89.99723866
  PAW double counting   =      2146.73252664    -2150.32207427
  entropy T*S    EENTRO =         0.00057979
  eigenvalues    EBANDS =      -328.37056738
  atomic energy  EATOM  =       835.46518068
  ---------------------------------------------------
  free energy    TOTEN  =       -73.71627811 eV

  energy without entropy =      -73.71685790  energy(sigma->0) =      -73.71647137


--------------------------------------------------------------------------------------------------------




----------------------------------------- Iteration    1(  27)  ---------------------------------------


    POTLOK:  cpu time    0.33: real time    0.33
    SETDIJ:  cpu time    0.00: real time    0.00
    EDDIAG:  cpu time    0.08: real time    0.08
  RMM-DIIS:  cpu time    0.22: real time    0.22
    ORTHCH:  cpu time    0.00: real time    0.00
       DOS:  cpu time    0.00: real time    0.00
    CHARGE:  cpu time    0.04: real time    0.04
    MIXING:  cpu time    0.03: real time    0.03
    --------------------------------------------
      LOOP:  cpu time    0.70: real time    0.70

 eigenvalue-minimisations  :    28
 total energy-change (2. order) :-0.1219903E-04  (-0.2988318E-07)
 number of electron      28.0000044 magnetization 
 augmentation part        0.6367278 magnetization 

 Broyden mixing:
  rms(total) = 0.88926E-04    rms(broyden)= 0.88920E-04
  rms(prec ) = 0.98635E-04
  weight for this iteration     100.00

 eigenvalues of (default mixing * dielectric matrix)
  average eigenvalue GAMMA=   2.4565
  9.0723  6.6098  4.5488  3.0336  2.4240  2.2425  2.2425  1.5030  1.5030  1.2448
  1.2448  1.3733  0.9663  0.9663  0.9223  0.9314  0.9314

 Free energy of the ion-electron system (eV)
  ---------------------------------------------------
  alpha Z        PSCENC =         0.42760457
  Ewald energy   TEWEN  =      1480.56461612
  -1/2 Hartree   DENC   =     -2148.20864397
  -exchange  EXHF       =         0.00000000
  -V(xc)+E(xc)   XCENC  =        89.99718061
  PAW double counting   =      2146.85109584    -2150.44054281
  entropy T*S    EENTRO =         0.00057979
  eigenvalues    EBANDS =      -328.37336115
  atomic energy  EATOM  =       835.46518068
  ---------------------------------------------------
  free energy    TOTEN  =       -73.71629031 eV

  energy without entropy =      -73.71687010  energy(sigma->0) =      -73.71648357


--------------------------------------------------------------------------------------------------------




----------------------------------------- Iteration    1(  28)  ---------------------------------------


    POTLOK:  cpu time    0.33: real time    0.33
    SETDIJ:  cpu time    0.00: real time    0.00
    EDDIAG:  cpu time    0.08: real time    0.08
  RMM-DIIS:  cpu time    0.20: real time    0.20
    ORTHCH:  cpu time    0.00: real time    0.00
       DOS:  cpu time    0.00: real time    0.00
    CHARGE:  cpu time    0.04: real time    0.04
    MIXING:  cpu time    0.03: real time    0.03
    --------------------------------------------
      LOOP:  cpu time    0.69: real time    0.69

 eigenvalue-minimisations  :    23
 total energy-change (2. order) :-0.8887255E-05  (-0.1085163E-07)
 number of electron      28.0000044 magnetization 
 augmentation part        0.6367268 magnetization 

 Broyden mixing:
  rms(total) = 0.26154E-04    rms(broyden)= 0.26149E-04
  rms(prec ) = 0.31598E-04
  weight for this iteration     100.00

 eigenvalues of (default mixing * dielectric matrix)
  average eigenvalue GAMMA=   2.4523
  9.3684  6.7271  4.9368  3.2365  2.6467  2.3213  2.0794  1.7176  1.4172  1.4172
  1.2157  1.2157  1.0876  0.9840  0.9840  0.9380  0.9380  0.9096

 Free energy of the ion-electron system (eV)
  ---------------------------------------------------
  alpha Z        PSCENC =         0.42760457
  Ewald energy   TEWEN  =      1480.56461612
  -1/2 Hartree   DENC   =     -2148.21062013
  -exchange  EXHF       =         0.00000000
  -V(xc)+E(xc)   XCENC  =        89.99717694
  PAW double counting   =      2146.81939210    -2150.40888653
  entropy T*S    EENTRO =         0.00057979
  eigenvalues    EBANDS =      -328.37134273
  atomic energy  EATOM  =       835.46518068
  ---------------------------------------------------
  free energy    TOTEN  =       -73.71629919 eV

  energy without entropy =      -73.71687898  energy(sigma->0) =      -73.71649246


--------------------------------------------------------------------------------------------------------




----------------------------------------- Iteration    1(  29)  ---------------------------------------


    POTLOK:  cpu time    0.33: real time    0.33
    SETDIJ:  cpu time    0.00: real time    0.00
    EDDIAG:  cpu time    0.08: real time    0.08
  RMM-DIIS:  cpu time    0.19: real time    0.19
    ORTHCH:  cpu time    0.00: real time    0.00
       DOS:  cpu time    0.00: real time    0.00
    CHARGE:  cpu time    0.04: real time    0.04
    MIXING:  cpu time    0.03: real time    0.03
    --------------------------------------------
      LOOP:  cpu time    0.68: real time    0.68

 eigenvalue-minimisations  :    20
 total energy-change (2. order) :-0.1641740E-05  (-0.4441929E-08)
 number of electron      28.0000044 magnetization 
 augmentation part        0.6367261 magnetization 

 Broyden mixing:
  rms(total) = 0.23949E-04    rms(broyden)= 0.23943E-04
  rms(prec ) = 0.28133E-04
  weight for this iteration     100.00

 eigenvalues of (default mixing * dielectric matrix)
  average eigenvalue GAMMA=   2.4346
  9.3459  6.8755  4.9940  3.4997  2.5951  2.1333  1.9822  1.9822  1.6841  1.6841
  1.2398  1.2398  1.2562  1.0069  1.0069  0.9378  0.9378  0.9275  0.9275

 Free energy of the ion-electron system (eV)
  ---------------------------------------------------
  alpha Z        PSCENC =         0.42760457
  Ewald energy   TEWEN  =      1480.56461612
  -1/2 Hartree   DENC   =     -2148.21256264
  -exchange  EXHF       =         0.00000000
  -V(xc)+E(xc)   XCENC  =        89.99720942
  PAW double counting   =      2146.80694258    -2150.39645319
  entropy T*S    EENTRO =         0.00057979
  eigenvalues    EBANDS =      -328.36941817
  atomic energy  EATOM  =       835.46518068
  ---------------------------------------------------
  free energy    TOTEN  =       -73.71630084 eV

  energy without entropy =      -73.71688063  energy(sigma->0) =      -73.71649410


--------------------------------------------------------------------------------------------------------




----------------------------------------- Iteration    1(  30)  ---------------------------------------


    POTLOK:  cpu time    0.33: real time    0.33
    SETDIJ:  cpu time    0.00: real time    0.00
    EDDIAG:  cpu time    0.07: real time    0.07
  RMM-DIIS:  cpu time    0.19: real time    0.19
    ORTHCH:  cpu time    0.00: real time    0.00
       DOS:  cpu time    0.00: real time    0.00
    CHARGE:  cpu time    0.04: real time    0.04
    MIXING:  cpu time    0.04: real time    0.04
    --------------------------------------------
      LOOP:  cpu time    0.68: real time    0.68

 eigenvalue-minimisations  :    18
 total energy-change (2. order) :-0.1756249E-05  (-0.3764972E-08)
 number of electron      28.0000044 magnetization 
 augmentation part        0.6367253 magnetization 

 Broyden mixing:
  rms(total) = 0.19066E-04    rms(broyden)= 0.19064E-04
  rms(prec ) = 0.22033E-04
  weight for this iteration     100.00

 eigenvalues of (default mixing * dielectric matrix)
  average eigenvalue GAMMA=   2.4360
  9.4352  6.9896  5.2319  3.6613  2.8507  2.5314  2.5314  1.9540  1.6766  1.3777
  1.3777  1.2450  1.2450  0.9658  0.9658  1.0107  1.0107  0.9376  0.8613  0.8613

 Free energy of the ion-electron system (eV)
  ---------------------------------------------------
  alpha Z        PSCENC =         0.42760457
  Ewald energy   TEWEN  =      1480.56461612
  -1/2 Hartree   DENC   =     -2148.21245165
  -exchange  EXHF       =         0.00000000
  -V(xc)+E(xc)   XCENC  =        89.99720204
  PAW double counting   =      2146.80502282    -2150.39453219
  entropy T*S    EENTRO =         0.00057979
  eigenvalues    EBANDS =      -328.36952477
  atomic energy  EATOM  =       835.46518068
  ---------------------------------------------------
  free energy    TOTEN  =       -73.71630259 eV

  energy without entropy =      -73.71688238  energy(sigma->0) =      -73.71649586


--------------------------------------------------------------------------------------------------------




----------------------------------------- Iteration    1(  31)  ---------------------------------------


    POTLOK:  cpu time    0.33: real time    0.33
    SETDIJ:  cpu time    0.00: real time    0.00
    EDDIAG:  cpu time    0.08: real time    0.08
  RMM-DIIS:  cpu time    0.17: real time    0.18
    ORTHCH:  cpu time    0.00: real time    0.00
       DOS:  cpu time    0.00: real time    0.00
    --------------------------------------------
      LOOP:  cpu time    0.59: real time    0.59

 eigenvalue-minimisations  :    14
 total energy-change (2. order) :-0.6661398E-06  ( 0.0000000E+00)
 number of electron      28.0000044 magnetization 
 augmentation part        0.6367253 magnetization 

 Free energy of the ion-electron system (eV)
  ---------------------------------------------------
  alpha Z        PSCENC =         0.42760457
  Ewald energy   TEWEN  =      1480.56461612
  -1/2 Hartree   DENC   =     -2148.21158288
  -exchange  EXHF       =         0.00000000
  -V(xc)+E(xc)   XCENC  =        89.99717327
  PAW double counting   =      2146.80173745    -2150.39123584
  entropy T*S    EENTRO =         0.00057979
  eigenvalues    EBANDS =      -328.37037642
  atomic energy  EATOM  =       835.46518068
  ---------------------------------------------------
  free energy    TOTEN  =       -73.71630326 eV

  energy without entropy =      -73.71688305  energy(sigma->0) =      -73.71649652


--------------------------------------------------------------------------------------------------------




 average (electrostatic) potential at core
  the test charge radii are     0.6991  0.5201
  (the norm of the test charge is              1.0000)
       1 -58.7160       2 -58.4035       3 -58.6151       4 -58.7488       5 -58.5273
       6 -41.8476       7 -41.8434       8 -41.8879       9 -41.9301      10 -41.8944
      11 -41.7892      12 -41.8358      13 -41.8330
 
 
 
 E-fermi :  -5.4357     XC(G=0):  -0.2447     alpha+bet : -0.0903


 k-point   1 :       0.0000    0.0000    0.0000
  band No.  band energies     occupation 
      1     -20.0222      2.00000
      2     -18.6887      2.00000
      3     -16.7626      2.00000
      4     -14.1114      2.00000
      5     -13.4347      2.00000
      6     -11.4669      2.00000
      7     -10.8268      2.00000
      8     -10.0409      2.00000
      9      -9.7765      2.00000
     10      -9.1225      2.00000
     11      -8.6152      2.00000
     12      -8.1386      2.00000
     13      -7.7340      2.00000
     14      -5.4441      2.00000
     15      -1.6273      0.00000
     16      -0.3733      0.00000
     17      -0.1044      0.00000
     18      -0.0651      0.00000
     19       0.2106      0.00000
     20       0.2416      0.00000
     21       0.3214      0.00000


--------------------------------------------------------------------------------------------------------


 soft charge-density along one line, spin component           1
         0         1         2         3         4         5         6         7         8         9
 total charge-density along one line
 
 pseudopotential strength for first ion, spin component:           1
 10.248  13.629   0.000  -0.000   0.001  -0.000  -0.000  -0.002
 13.629  18.125   0.000  -0.000   0.001  -0.001  -0.001  -0.002
  0.000   0.000  -4.372   0.001  -0.002   8.556  -0.002   0.002
 -0.000  -0.000   0.001  -4.378   0.001  -0.002   8.563  -0.002
  0.001   0.001  -0.002   0.001  -4.375   0.002  -0.002   8.560
 -0.000  -0.001   8.556  -0.002   0.002 -18.885   0.001  -0.001
 -0.000  -0.001  -0.002   8.563  -0.002   0.001 -18.888   0.003
 -0.002  -0.002   0.002  -0.002   8.560  -0.001   0.003 -18.885
 total augmentation occupancy for first ion, spin component:           1
  7.896  -3.427  -0.029   0.308   0.024  -0.003   0.051   0.009
 -3.427   1.529   0.011  -0.180  -0.030   0.001  -0.029  -0.007
 -0.029   0.011   1.234  -0.106   0.196   0.085  -0.015   0.029
  0.308  -0.180  -0.106   1.873  -0.054  -0.015   0.172  -0.010
  0.024  -0.030   0.196  -0.054   1.665   0.029  -0.010   0.148
 -0.003   0.001   0.085  -0.015   0.029   0.006  -0.002   0.004
  0.051  -0.029  -0.015   0.172  -0.010  -0.002   0.017  -0.002
  0.009  -0.007   0.029  -0.010   0.148   0.004  -0.002   0.014


------------------------ aborting loop because EDIFF is reached ----------------------------------------


    CHARGE:  cpu time    0.04: real time    0.04
    FORLOC:  cpu time    0.02: real time    0.02
    FORNL :  cpu time    0.10: real time    0.10
    STRESS:  cpu time    0.32: real time    0.32
    FORCOR:  cpu time    0.32: real time    0.32
    FORHAR:  cpu time    0.10: real time    0.10
    MIXING:  cpu time    0.04: real time    0.04
 _________________________________
                                  
|         DFTD3 V3.0 Rev 1        |
| S.Grimme, University Bonn       |
|        November  2012           |
 _________________________________

Please cite DFT-D3 as:
S. Grimme, J. Antony, S. Ehrlich and H. Krieg,
J. Chem. Phys. 132 (2010), 154104
If used with BJ-damping cite also
S. Grimme, S. Ehrlich and L. Goerigk,
J. Comput. Chem. 32 (2011), 1456-1465
For DFT-D2 the reference is
S. Grimme, J. Comput. Chem., 27 (2006), 1787

           DFT-D V3
 DF pbe       
 parameters
 s6       :    1.0000
 s8       :    0.7220
 rs6      :    1.2170
 rs18     :    1.0000
 alpha6   :   14.0000
 alpha8   :   16.0000
 k1-k3    :   16.0000    1.3333   -4.0000
 Cutoff    /Ang:   50.2022
 CN-Cutoff /Ang:   21.1671
 Edisp /eV,au:    -0.0853 -0.00313495

 E6    /eV :    -0.0316
 E8    /eV :    -0.0744
 % E8        : 87.21

 POSITION                                vdW-FORCE (eV/Ang)               C6          C8     CN


 ---------------------------------------------------------------------------------------------

   14.15635   11.34113   -3.54406      -0.00059    0.00029   -0.00429     25.6        739.6  3.0
   13.78134   11.05314   -2.28424      -0.00052   -0.00035    0.00113     25.6        740.4  3.0
   15.45635   11.86162   -3.91726       0.00226    0.00064    0.00167     25.5        737.5  3.1
   15.83054   12.13971   -5.18174      -0.00684   -0.00258    0.00073     25.6        739.5  3.1
   17.16534   12.67046   -5.58806       0.00210    0.00075    0.00009     18.3        529.8  4.0
   12.78947   10.66136   -2.05636      -0.00092   -0.00039    0.00045      3.1         37.4  1.0
   14.46167   11.20251   -1.44167       0.00231    0.00063    0.00178      3.1         37.4  1.0
   16.17064   12.03360   -3.10175       0.00361    0.00121    0.00103      3.1         37.3  1.0
   15.10659   11.96420   -5.98741      -0.00051    0.00015   -0.00316      3.1         37.4  1.0
   13.44568   11.17650   -4.36281      -0.00338   -0.00095   -0.00234      3.1         37.3  1.0
   17.82429   12.82255   -4.72096       0.00422    0.00136    0.00189      3.1         37.4  1.0
   17.06873   13.63247   -6.11930      -0.00165    0.00183    0.00073      3.1         37.4  1.0
   17.67199   11.98386   -6.28778      -0.00009   -0.00259    0.00031      3.1         37.4  1.0

  FORCE on cell =-STRESS in cart. coord.  units (eV):
  Direction    XX          YY          ZZ          XY          YZ          ZX
  --------------------------------------------------------------------------------------
  DFT-D       0.01938     0.00506     0.00886     0.00412     0.00449     0.01403
    FORVDW:  cpu time    0.01: real time    0.01

  FORCE on cell =-STRESS in cart. coord.  units (eV):
  Direction    XX          YY          ZZ          XY          YZ          ZX
  --------------------------------------------------------------------------------------
  Alpha Z     0.42760     0.42760     0.42760
  Ewald     707.69393     2.19115   770.67918   350.93751  -246.82614  -369.65349
  Hartree   858.29957   428.40279   861.50815   221.57315  -176.33766  -300.03535
  E(xc)     -98.46681  -100.08887   -98.13115     0.71221    -0.28886    -0.08149
  Local   -1809.88718  -701.76025 -1865.09406  -561.30306   419.75330   673.83390
  n-local   -40.52305   -39.22361   -41.87607    -0.43559    -0.00435    -0.90017
  augment    -0.82362    -0.71385    -0.89888    -0.04221     0.01016    -0.03797
  Kinetic   382.19578   409.57506   372.38693   -11.38825     3.66363    -3.14037
  Fock        0.00000     0.00000     0.00000     0.00000     0.00000     0.00000
  -------------------------------------------------------------------------------------
  Total      -1.06440    -1.18492    -0.98944     0.05787    -0.02544    -0.00091
  in kB      -0.21317    -0.23731    -0.19816     0.01159    -0.00509    -0.00018
  external pressure =       -0.22 kB  Pullay stress =        0.00 kB


 VOLUME and BASIS-vectors are now :
 -----------------------------------------------------------------------------
  energy-cutoff  :      400.00
  volume of cell :     8000.00
      direct lattice vectors                 reciprocal lattice vectors
    16.329931619 -8.164965809 -8.164965809     0.040824829 -0.020412415 -0.020412415
     0.000000000 14.142135624-14.142135624     0.000000000  0.035355339 -0.035355339
    11.547005384 11.547005384 11.547005384     0.028867513  0.028867513  0.028867513

  length of vectors
    20.000000000 20.000000000 20.000000000     0.050000000  0.050000000  0.050000000


 FORCES acting on ions
    electron-ion (+dipol)            ewald-force                    non-local-force                 convergence-correction
 -----------------------------------------------------------------------------------------------
   0.826E+02 0.257E+02 0.348E+02   -.831E+02 -.259E+02 -.350E+02   0.501E+00 0.151E+00 0.200E+00   -.136E-04 -.181E-04 0.131E-03
   0.710E+02 0.421E+02 -.136E+03   -.712E+02 -.423E+02 0.136E+03   0.188E+00 0.144E+00 -.597E+00   0.611E-04 0.434E-04 -.172E-03
   -.388E+02 -.692E+01 -.698E+02   0.394E+02 0.707E+01 0.702E+02   -.536E+00 -.153E+00 -.349E+00   -.126E-03 -.499E-04 0.180E-04
   0.124E+02 -.747E+01 0.104E+03   -.127E+02 0.737E+01 -.104E+03   0.300E+00 0.943E-01 0.193E-01   -.741E-05 -.498E-05 0.256E-04
   -.106E+03 -.452E+02 0.586E+02   0.107E+03 0.454E+02 -.583E+02   -.511E+00 -.163E+00 -.306E+00   -.544E-04 -.267E-04 0.257E-04
   0.595E+02 0.249E+02 -.250E+02   -.647E+02 -.269E+02 0.262E+02   0.520E+01 0.205E+01 -.119E+01   0.362E-04 0.165E-04 -.190E-04
   -.252E+02 -.186E+01 -.625E+02   0.287E+02 0.263E+01 0.669E+02   -.350E+01 -.767E+00 -.436E+01   -.152E-04 -.200E-05 -.402E-04
   -.466E+02 -.111E+02 -.548E+02   0.503E+02 0.120E+02 0.589E+02   -.365E+01 -.881E+00 -.414E+01   -.186E-04 -.750E-05 -.307E-05
   0.405E+02 0.807E+01 0.605E+02   -.442E+02 -.898E+01 -.646E+02   0.372E+01 0.906E+00 0.409E+01   0.764E-05 0.228E-05 0.152E-04
   0.547E+02 0.147E+02 0.456E+02   -.584E+02 -.155E+02 -.498E+02   0.368E+01 0.858E+00 0.417E+01   0.321E-04 0.762E-05 0.463E-04
   -.546E+02 -.163E+02 -.375E+02   0.580E+02 0.170E+02 0.418E+02   -.332E+01 -.774E+00 -.431E+01   -.796E-05 -.473E-05 0.100E-05
   -.802E+01 -.589E+02 0.367E+02   0.758E+01 0.637E+02 -.393E+02   0.441E+00 -.473E+01 0.260E+01   -.825E-05 -.418E-05 0.337E-05
   -.414E+02 0.323E+02 0.460E+02   0.439E+02 -.356E+02 -.495E+02   -.251E+01 0.335E+01 0.342E+01   -.666E-05 -.369E-05 0.464E-05
 -----------------------------------------------------------------------------------------------
   0.842E-02 -.930E-01 0.763E+00   -.497E-13 -.711E-14 -.497E-13   -.129E-01 0.927E-01 -.762E+00   -.121E-03 -.520E-04 0.363E-04
 
 
 POSITION                                       TOTAL-FORCE (eV/Angst)
 -----------------------------------------------------------------------------------
     14.15635     11.34113     -3.54406         0.003215     -0.001217      0.000191
     13.78134     11.05314     -2.28424         0.000857      0.002232      0.005680
     15.45635     11.86162     -3.91726        -0.002020      0.002019      0.006410
     15.83054     12.13971     -5.18174         0.001702     -0.001136     -0.004353
     17.16534     12.67046     -5.58806         0.005368     -0.000338      0.002530
     12.78947     10.66136     -2.05636        -0.001732      0.000367     -0.003258
     14.46167     11.20251     -1.44167         0.001149      0.001377      0.000092
     16.17064     12.03360     -3.10175         0.003766     -0.002290      0.002404
     15.10659     11.96420     -5.98741        -0.003597     -0.001927     -0.004533
     13.44568     11.17650     -4.36281        -0.002867     -0.002090     -0.005002
     17.82429     12.82255     -4.72096        -0.000302     -0.000201      0.001026
     17.06873     13.63247     -6.11930        -0.003369      0.003730     -0.000521
     17.67199     11.98386     -6.28778        -0.002170     -0.000525     -0.000665
 -----------------------------------------------------------------------------------
    total drift:                               -0.004614     -0.000425      0.001140


--------------------------------------------------------------------------------------------------------



  FREE ENERGIE OF THE ION-ELECTRON SYSTEM (eV)
  ---------------------------------------------------
  free  energy   TOTEN  =       -73.80161049 eV

  energy  without entropy=      -73.80219028  energy(sigma->0) =      -73.80180375
 


--------------------------------------------------------------------------------------------------------


    POTLOK:  cpu time    0.35: real time    0.35


--------------------------------------------------------------------------------------------------------


 stress matrix after NEB project (eV)
     -1.06440      0.05787     -0.00091
      0.05787     -1.18492     -0.02544
     -0.00091     -0.02544     -0.98944
  FORCES: max atom, RMS     0.007017    0.004857
  FORCE total and by dimension    0.017513    0.006410
  Stress total and by dimension    1.877221    1.184922


--------------------------------------------------------------------------------------------------------


  
 reached required accuracy - stopping structural energy minimisation
     LOOP+:  cpu time   21.66: real time   21.98
    4ORBIT:  cpu time    0.00: real time    0.00

 total amount of memory used by VASP on root node    59309. kBytes
========================================================================

   base      :      30000. kBytes
   nonlr-proj:        432. kBytes
   fftplans  :      10155. kBytes
   grid      :      16274. kBytes
   one-center:          3. kBytes
   wavefun   :       2445. kBytes
 
  
  
 General timing and accounting informations for this job:
 ========================================================
  
                  Total CPU time used (sec):       23.329
                            User time (sec):       22.246
                          System time (sec):        1.084
                         Elapsed time (sec):       24.175
  
                   Maximum memory used (kb):      101564.
                   Average memory used (kb):           0.
  
                          Minor page faults:       124825
                          Major page faults:           21
                 Voluntary context switches:         1869
