 running on   20 total cores
 distrk:  each k-point on   20 cores,    1 groups
 distr:  one band on   20 cores,    1 groups
 using from now: INCAR     
 vasp.5.3.2 13Sep12 (build Oct  1 2014 14:03:07) gamma-only                     
  
 POSCAR found type information on POSCAR  C  H 
 POSCAR found :  2 types and      13 ions

 ----------------------------------------------------------------------------- 
|                                                                             |
|           W    W    AA    RRRRR   N    N  II  N    N   GGGG   !!!           |
|           W    W   A  A   R    R  NN   N  II  NN   N  G    G  !!!           |
|           W    W  A    A  R    R  N N  N  II  N N  N  G       !!!           |
|           W WW W  AAAAAA  RRRRR   N  N N  II  N  N N  G  GGG   !            |
|           WW  WW  A    A  R   R   N   NN  II  N   NN  G    G                |
|           W    W  A    A  R    R  N    N  II  N    N   GGGG   !!!           |
|                                                                             |
|      For optimal performance we recommend that you set                      |
|        NPAR = 4 - approx SQRT( number of cores)                             |
|      (number of cores/NPAR must be integer)                                 |
|      This setting will greatly improve the performance of VASP for DFT.     |
|      The default NPAR=number of cores might be grossly inefficient          |
|      on modern multi-core architectures or massively parallel machines.     |
|      Do your own testing.                                                   |
|      Unfortunately you need to use the default for hybrid, GW and RPA       |
|      calculations.                                                          |
|                                                                             |
 ----------------------------------------------------------------------------- 

 LDA part: xc-table for Pade appr. of Perdew
 POSCAR found type information on POSCAR  C  H 
 POSCAR found :  2 types and      13 ions
 POSCAR, INCAR and KPOINTS ok, starting setup
 WARNING: small aliasing (wrap around) errors must be expected
 FFT: planning ...
 WAVECAR not read
 entering main loop
       N       E                     dE             d eps       ncg     rms          rms(c)
DAV:   1     0.185483365407E+03    0.18548E+03   -0.55411E+03    58   0.529E+02
DAV:   2     0.327459145408E+02   -0.15274E+03   -0.15058E+03    71   0.110E+02
DAV:   3    -0.604555975487E+02   -0.93202E+02   -0.92872E+02    60   0.776E+01
DAV:   4    -0.784512796137E+02   -0.17996E+02   -0.17962E+02    52   0.443E+01
DAV:   5    -0.794459543529E+02   -0.99467E+00   -0.99366E+00    60   0.125E+01
DAV:   6    -0.794517193909E+02   -0.57650E-02   -0.51836E-02    60   0.111E+00
DAV:   7    -0.794512219378E+02    0.49745E-03   -0.82331E-04    60   0.164E-01
DAV:   8    -0.794512258316E+02   -0.38938E-05   -0.38927E-05    68   0.320E-02
DAV:   9    -0.794518056340E+02   -0.57980E-03   -0.12537E-07    52   0.190E-03
DAV:  10    -0.794512258441E+02    0.57979E-03   -0.96481E-09    52   0.539E-04    0.147E+01
RMM:  11    -0.726715887189E+02    0.67796E+01   -0.10566E+01    42   0.143E+01    0.797E+00
RMM:  12    -0.708947133831E+02    0.17769E+01   -0.63212E+00    42   0.106E+01    0.323E+00
RMM:  13    -0.707225356852E+02    0.17218E+00   -0.46514E-01    43   0.295E+00    0.132E+00
RMM:  14    -0.706754319942E+02    0.47104E-01   -0.84105E-02    42   0.147E+00    0.308E-01
RMM:  15    -0.706671624641E+02    0.82695E-02   -0.11755E-02    42   0.487E-01    0.203E-01
RMM:  16    -0.706621422156E+02    0.50202E-02   -0.85174E-03    42   0.383E-01    0.107E-01
RMM:  17    -0.706633549523E+02   -0.12127E-02   -0.47379E-03    42   0.265E-01    0.667E-02
RMM:  18    -0.706710274709E+02   -0.76725E-02   -0.31033E-03    42   0.188E-01    0.569E-02
RMM:  19    -0.706762132906E+02   -0.51858E-02   -0.11041E-03    42   0.136E-01    0.220E-02
RMM:  20    -0.706818934903E+02   -0.56802E-02   -0.12927E-03    42   0.127E-01    0.309E-02
RMM:  21    -0.706833513254E+02   -0.14578E-02   -0.34046E-04    43   0.591E-02    0.927E-03
RMM:  22    -0.706835364981E+02   -0.18517E-03   -0.74447E-05    42   0.318E-02    0.579E-03
RMM:  23    -0.706841004791E+02   -0.56398E-03   -0.52499E-05    39   0.222E-02    0.344E-03
RMM:  24    -0.706848763938E+02   -0.77591E-03   -0.16044E-05    38   0.117E-02    0.341E-03
RMM:  25    -0.706849944019E+02   -0.11801E-03   -0.56237E-06    35   0.848E-03    0.130E-03
RMM:  26    -0.706844474810E+02    0.54692E-03   -0.90000E-07    28   0.438E-03    0.942E-04
RMM:  27    -0.706844678010E+02   -0.20320E-04   -0.34339E-07    26   0.262E-03    0.452E-04
RMM:  28    -0.706844738033E+02   -0.60022E-05   -0.11245E-07    21   0.160E-03    0.170E-04
RMM:  29    -0.706844765577E+02   -0.27544E-05   -0.22343E-08    15   0.129E-03    0.105E-04
RMM:  30    -0.706844779521E+02   -0.13944E-05   -0.32134E-08    18   0.138E-03    0.538E-05
RMM:  31    -0.706844786927E+02   -0.74061E-06   -0.71975E-09    15   0.117E-03
   1 F= -.70770611E+02 E0= -.70770804E+02  d E =-.707706E+02
 curvature:   0.00 expect dE= 0.000E+00 dE for cont linesearch  0.000E+00
 trial: gam= 0.00000 g(F)=  0.177E+02 g(S)=  0.000E+00 ort = 0.000E+00 (trialstep = 0.100E+01)
 search vector abs. value=  0.177E+02
 bond charge predicted
       N       E                     dE             d eps       ncg     rms          rms(c)
DAV:   1    -0.554565168753E+02    0.15228E+02   -0.11834E+03    42   0.230E+02    0.154E+01
RMM:   2    -0.612665031053E+02   -0.58100E+01   -0.74974E+01    42   0.516E+01    0.740E+00
RMM:   3    -0.606678273367E+02    0.59868E+00   -0.41661E+00    46   0.102E+01    0.571E+00
RMM:   4    -0.602398882887E+02    0.42794E+00   -0.43009E+00    45   0.821E+00    0.189E+00
RMM:   5    -0.601937320209E+02    0.46156E-01   -0.17858E-01    44   0.207E+00    0.152E+00
RMM:   6    -0.601021173001E+02    0.91615E-01   -0.67328E-01    43   0.267E+00    0.439E-01
RMM:   7    -0.601014973259E+02    0.61997E-03   -0.19939E-02    44   0.589E-01    0.240E-01
RMM:   8    -0.601030544274E+02   -0.15571E-02   -0.10911E-02    43   0.388E-01    0.688E-02
RMM:   9    -0.601060460020E+02   -0.29916E-02   -0.27568E-03    45   0.191E-01    0.949E-02
RMM:  10    -0.601080961751E+02   -0.20502E-02   -0.28378E-03    43   0.170E-01    0.285E-02
RMM:  11    -0.601110308778E+02   -0.29347E-02   -0.13459E-03    43   0.962E-02    0.335E-02
RMM:  12    -0.601120784690E+02   -0.10476E-02   -0.67694E-04    44   0.862E-02    0.211E-02
RMM:  13    -0.601126253513E+02   -0.54688E-03   -0.19106E-04    43   0.401E-02    0.651E-03
RMM:  14    -0.601131045944E+02   -0.47924E-03   -0.72450E-05    39   0.224E-02    0.494E-03
RMM:  15    -0.601132247597E+02   -0.12017E-03   -0.15182E-05    35   0.112E-02    0.188E-03
RMM:  16    -0.601133245511E+02   -0.99791E-04   -0.10036E-05    36   0.988E-03    0.412E-03
RMM:  17    -0.601133692340E+02   -0.44683E-04   -0.31903E-06    30   0.689E-03    0.791E-04
RMM:  18    -0.601134024508E+02   -0.33217E-04   -0.14023E-06    29   0.471E-03    0.976E-04
RMM:  19    -0.601134136667E+02   -0.11216E-04   -0.34272E-07    24   0.245E-03    0.780E-04
RMM:  20    -0.601134218881E+02   -0.82215E-05   -0.32299E-07    28   0.229E-03    0.331E-04
RMM:  21    -0.601134243529E+02   -0.24648E-05   -0.64924E-08    18   0.109E-03    0.145E-04
RMM:  22    -0.601134262120E+02   -0.18591E-05   -0.43169E-08    16   0.112E-03    0.101E-04
RMM:  23    -0.601134270898E+02   -0.87779E-06   -0.17047E-08    15   0.105E-03
   2 F= -.60224722E+02 E0= -.60224915E+02  d E =0.105459E+02
 trial-energy change:   10.545890  1 .order    3.636014  -17.737521   25.009549
 step:   0.2387(harm=  0.4149)  dis= 0.06455  next Energy=   -72.793573 (dE=-0.202E+01)
 bond charge predicted
       N       E                     dE             d eps       ncg     rms          rms(c)
DAV:   1    -0.714083323906E+02   -0.11295E+02   -0.73898E+02    42   0.182E+02    0.109E+01
RMM:   2    -0.728806905072E+02   -0.14724E+01   -0.25854E+01    42   0.330E+01    0.567E+00
RMM:   3    -0.726313613799E+02    0.24933E+00   -0.12895E+00    43   0.660E+00    0.433E+00
RMM:   4    -0.724419763692E+02    0.18939E+00   -0.12972E+00    42   0.520E+00    0.813E-01
RMM:   5    -0.724273545806E+02    0.14622E-01   -0.34664E-02    44   0.101E+00    0.587E-01
RMM:   6    -0.724258640819E+02    0.14905E-02   -0.15925E-01    42   0.162E+00    0.427E-01
RMM:   7    -0.724197264783E+02    0.61376E-02   -0.13139E-02    42   0.496E-01    0.128E-01
RMM:   8    -0.724227354916E+02   -0.30090E-02   -0.68406E-03    43   0.352E-01    0.773E-02
RMM:   9    -0.724235824855E+02   -0.84699E-03   -0.51235E-04    42   0.108E-01    0.702E-02
RMM:  10    -0.724276203552E+02   -0.40379E-02   -0.56727E-03    42   0.309E-01    0.110E-01
RMM:  11    -0.724289573323E+02   -0.13370E-02   -0.17138E-03    42   0.170E-01    0.166E-02
RMM:  12    -0.724303701471E+02   -0.14128E-02   -0.45660E-04    43   0.862E-02    0.119E-02
RMM:  13    -0.724310352767E+02   -0.66513E-03   -0.72330E-05    42   0.311E-02    0.460E-03
RMM:  14    -0.724313941171E+02   -0.35884E-03   -0.33002E-05    40   0.171E-02    0.444E-03
RMM:  15    -0.724310031219E+02    0.39100E-03   -0.10804E-05    37   0.113E-02    0.259E-03
RMM:  16    -0.724310940638E+02   -0.90942E-04   -0.67270E-06    37   0.944E-03    0.187E-03
RMM:  17    -0.724311519843E+02   -0.57920E-04   -0.19091E-06    30   0.507E-03    0.137E-03
RMM:  18    -0.724311668084E+02   -0.14824E-04   -0.64680E-07    28   0.317E-03    0.386E-04
RMM:  19    -0.724311813502E+02   -0.14542E-04   -0.36924E-07    24   0.254E-03    0.370E-04
RMM:  20    -0.724311827026E+02   -0.13524E-05   -0.79610E-08    21   0.147E-03    0.303E-04
RMM:  21    -0.724311852567E+02   -0.25541E-05   -0.19206E-08    16   0.110E-03    0.778E-05
RMM:  22    -0.724311856135E+02   -0.35675E-06   -0.92291E-09    15   0.108E-03
   3 F= -.72516298E+02 E0= -.72516492E+02  d E =-.174569E+01
 curvature:  -0.19 expect dE=-0.638E+00 dE for cont linesearch -0.234E-01
 ZBRENT: interpolating
 opt :   0.2203  next Energy=   -72.529970 (dE=-0.176E+01)
 bond charge predicted
       N       E                     dE             d eps       ncg     rms          rms(c)
DAV:   1    -0.724474069443E+02   -0.16222E-01   -0.55277E-01    52   0.521E+00    0.183E-01
RMM:   2    -0.724480079026E+02   -0.60096E-03   -0.11778E-02    42   0.698E-01    0.130E-01
RMM:   3    -0.724477810829E+02    0.22682E-03   -0.10275E-03    43   0.170E-01    0.575E-02
RMM:   4    -0.724477551213E+02    0.25962E-04   -0.14403E-04    42   0.645E-02    0.182E-02
RMM:   5    -0.724477522823E+02    0.28389E-05   -0.14059E-05    42   0.211E-02    0.613E-03
RMM:   6    -0.724477556535E+02   -0.33712E-05   -0.44391E-06    36   0.916E-03    0.248E-03
RMM:   7    -0.724477611279E+02   -0.54744E-05   -0.77146E-07    28   0.457E-03    0.968E-04
RMM:   8    -0.724477681036E+02   -0.69757E-05   -0.64555E-07    28   0.377E-03    0.752E-04
RMM:   9    -0.724477770723E+02   -0.89687E-05   -0.10417E-06    28   0.391E-03    0.101E-03
RMM:  10    -0.724477808181E+02   -0.37457E-05   -0.46502E-07    27   0.252E-03    0.322E-04
RMM:  11    -0.724477845367E+02   -0.37186E-05   -0.36527E-07    27   0.226E-03    0.264E-04
RMM:  12    -0.724477868474E+02   -0.23107E-05   -0.18573E-07    19   0.144E-03    0.110E-04
RMM:  13    -0.724477880750E+02   -0.12276E-05   -0.94636E-08    18   0.129E-03    0.560E-05
RMM:  14    -0.724477889412E+02   -0.86623E-06   -0.59438E-08    17   0.123E-03
   4 F= -.72532963E+02 E0= -.72533156E+02  d E =-.176235E+01
 curvature:  -0.11 expect dE=-0.323E+00 dE for cont linesearch -0.629E-03
 trial: gam= 0.18353 g(F)=  0.294E+01 g(S)=  0.000E+00 ort =-0.318E+00 (trialstep = 0.844E+00)
 search vector abs. value=  0.342E+01
 bond charge predicted
       N       E                     dE             d eps       ncg     rms          rms(c)
DAV:   1    -0.710782440395E+02    0.13695E+01   -0.22408E+02    42   0.104E+02    0.410E+00
RMM:   2    -0.715128299983E+02   -0.43459E+00   -0.64886E+00    42   0.166E+01    0.271E+00
RMM:   3    -0.713948998583E+02    0.11793E+00   -0.34770E-01    43   0.326E+00    0.174E+00
RMM:   4    -0.713672228119E+02    0.27677E-01   -0.34040E-01    42   0.258E+00    0.467E-01
RMM:   5    -0.713620204658E+02    0.52023E-02   -0.16378E-02    42   0.638E-01    0.153E-01
RMM:   6    -0.713622674334E+02   -0.24697E-03   -0.30475E-03    44   0.251E-01    0.616E-02
RMM:   7    -0.713624234537E+02   -0.15602E-03   -0.30429E-04    43   0.822E-02    0.312E-02
RMM:   8    -0.713628460498E+02   -0.42260E-03   -0.23685E-04    42   0.679E-02    0.117E-02
RMM:   9    -0.713630294908E+02   -0.18344E-03   -0.27435E-05    43   0.216E-02    0.972E-03
RMM:  10    -0.713634937861E+02   -0.46430E-03   -0.19087E-04    42   0.512E-02    0.186E-02
RMM:  11    -0.713635520073E+02   -0.58221E-04   -0.50319E-05    42   0.286E-02    0.368E-03
RMM:  12    -0.713637210776E+02   -0.16907E-03   -0.30943E-05    42   0.211E-02    0.400E-03
RMM:  13    -0.713637786695E+02   -0.57592E-04   -0.83686E-06    35   0.921E-03    0.363E-03
RMM:  14    -0.713638240006E+02   -0.45331E-04   -0.81717E-06    39   0.107E-02    0.187E-03
RMM:  15    -0.713644100344E+02   -0.58603E-03   -0.42821E-07    28   0.319E-03    0.923E-04
RMM:  16    -0.713644273565E+02   -0.17322E-04   -0.13886E-06    29   0.462E-03    0.955E-04
RMM:  17    -0.713644299414E+02   -0.25849E-05   -0.28079E-07    28   0.230E-03    0.258E-04
RMM:  18    -0.713644327999E+02   -0.28586E-05   -0.54909E-08    18   0.109E-03    0.136E-04
RMM:  19    -0.713644347510E+02   -0.19511E-05   -0.18362E-08    15   0.110E-03    0.101E-04
RMM:  20    -0.713644355620E+02   -0.81099E-06   -0.27408E-08    17   0.121E-03
   5 F= -.71448038E+02 E0= -.71448038E+02  d E =0.108492E+01
 trial-energy change:    1.084925  1 .order    1.012814   -2.429793    4.455422
 step:   0.2860(harm=  0.2979)  dis= 0.05101  next Energy=   -72.941793 (dE=-0.409E+00)
 bond charge predicted
       N       E                     dE             d eps       ncg     rms          rms(c)
DAV:   1    -0.727636421261E+02   -0.13992E+01   -0.99811E+01    42   0.697E+01    0.270E+00
RMM:   2    -0.728968900461E+02   -0.13325E+00   -0.24372E+00    42   0.103E+01    0.169E+00
RMM:   3    -0.728531349701E+02    0.43755E-01   -0.18661E-01    43   0.231E+00    0.867E-01
RMM:   4    -0.728473468008E+02    0.57882E-02   -0.55532E-02    42   0.114E+00    0.225E-01
RMM:   5    -0.728471921740E+02    0.15463E-03   -0.31862E-03    42   0.314E-01    0.789E-02
RMM:   6    -0.728471759190E+02    0.16255E-04   -0.12151E-03    42   0.151E-01    0.302E-02
RMM:   7    -0.728472909458E+02   -0.11503E-03   -0.87035E-05    44   0.439E-02    0.157E-02
RMM:   8    -0.728474955446E+02   -0.20460E-03   -0.80063E-05    42   0.374E-02    0.833E-03
RMM:   9    -0.728476829637E+02   -0.18742E-03   -0.56375E-05    42   0.290E-02    0.848E-03
RMM:  10    -0.728477995194E+02   -0.11656E-03   -0.18502E-05    41   0.161E-02    0.342E-03
RMM:  11    -0.728478957730E+02   -0.96254E-04   -0.29539E-05    42   0.212E-02    0.651E-03
RMM:  12    -0.728479482324E+02   -0.52459E-04   -0.11644E-05    41   0.125E-02    0.139E-03
RMM:  13    -0.728485632355E+02   -0.61500E-03   -0.38535E-06    34   0.791E-03    0.167E-03
RMM:  14    -0.728485726334E+02   -0.93979E-05   -0.86056E-07    28   0.436E-03    0.137E-03
RMM:  15    -0.728485822990E+02   -0.96656E-05   -0.62317E-07    28   0.338E-03    0.567E-04
RMM:  16    -0.728485876260E+02   -0.53270E-05   -0.29828E-07    25   0.240E-03    0.357E-04
RMM:  17    -0.728485901987E+02   -0.25727E-05   -0.11558E-07    23   0.160E-03    0.224E-04
RMM:  18    -0.728485916280E+02   -0.14293E-05   -0.22240E-08    15   0.110E-03    0.149E-04
RMM:  19    -0.728485924323E+02   -0.80429E-06    0.00000E+00    14   0.110E-03
   6 F= -.72933063E+02 E0= -.72933063E+02  d E =-.400100E+00
 curvature:  -0.18 expect dE=-0.239E+00 dE for cont linesearch -0.496E-04
 trial: gam= 0.38721 g(F)=  0.135E+01 g(S)=  0.000E+00 ort =-0.310E-01 (trialstep = 0.732E+00)
 search vector abs. value=  0.184E+01
 bond charge predicted
       N       E                     dE             d eps       ncg     rms          rms(c)
DAV:   1    -0.729068054267E+02   -0.58214E-01   -0.67358E+01    42   0.586E+01    0.165E+00
RMM:   2    -0.729957295278E+02   -0.88924E-01   -0.12562E+00    42   0.715E+00    0.111E+00
RMM:   3    -0.729855424149E+02    0.10187E-01   -0.73158E-02    44   0.154E+00    0.683E-01
RMM:   4    -0.729827866374E+02    0.27558E-02   -0.16295E-02    42   0.661E-01    0.200E-01
RMM:   5    -0.729831325162E+02   -0.34588E-03   -0.25902E-03    42   0.257E-01    0.545E-02
RMM:   6    -0.729833370317E+02   -0.20452E-03   -0.34361E-04    43   0.935E-02    0.221E-02
RMM:   7    -0.729835509753E+02   -0.21394E-03   -0.66879E-05    42   0.403E-02    0.132E-02
RMM:   8    -0.729838139541E+02   -0.26298E-03   -0.41639E-05    43   0.245E-02    0.530E-03
RMM:   9    -0.729839718934E+02   -0.15794E-03   -0.10570E-05    37   0.126E-02    0.396E-03
RMM:  10    -0.729842186891E+02   -0.24680E-03   -0.32676E-05    41   0.199E-02    0.391E-03
RMM:  11    -0.729842829768E+02   -0.64288E-04   -0.12818E-05    40   0.127E-02    0.315E-03
RMM:  12    -0.729843343207E+02   -0.51344E-04   -0.38266E-06    35   0.708E-03    0.108E-03
RMM:  13    -0.729843635069E+02   -0.29186E-04   -0.19373E-06    30   0.533E-03    0.970E-04
RMM:  14    -0.729843793781E+02   -0.15871E-04   -0.58038E-07    26   0.305E-03    0.309E-04
RMM:  15    -0.729843836129E+02   -0.42348E-05   -0.23760E-07    24   0.192E-03    0.183E-04
RMM:  16    -0.729843888893E+02   -0.52764E-05   -0.15056E-07    22   0.166E-03    0.127E-04
RMM:  17    -0.729843893655E+02   -0.47621E-06   -0.20690E-08    16   0.110E-03
   7 F= -.73069731E+02 E0= -.73069924E+02  d E =-.136668E+00
 trial-energy change:   -0.136668  1 .order   -0.168516   -0.982238    0.645206
 step:   0.4210(harm=  0.4421)  dis= 0.04800  next Energy=   -73.209333 (dE=-0.276E+00)
 bond charge predicted
       N       E                     dE             d eps       ncg     rms          rms(c)
DAV:   1    -0.731132142972E+02   -0.12883E+00   -0.12151E+01    42   0.249E+01    0.665E-01
RMM:   2    -0.731256791631E+02   -0.12465E-01   -0.18740E-01    42   0.278E+00    0.448E-01
RMM:   3    -0.731239571705E+02    0.17220E-02   -0.12541E-02    42   0.642E-01    0.194E-01
RMM:   4    -0.731240027777E+02   -0.45607E-04   -0.27092E-03    42   0.277E-01    0.420E-02
RMM:   5    -0.731240490990E+02   -0.46321E-04   -0.18694E-04    44   0.782E-02    0.206E-02
RMM:   6    -0.731241272621E+02   -0.78163E-04   -0.11595E-04    42   0.455E-02    0.747E-03
RMM:   7    -0.731241699030E+02   -0.42641E-04   -0.61933E-06    39   0.119E-02    0.407E-03
RMM:   8    -0.731242563462E+02   -0.86443E-04   -0.12541E-05    39   0.137E-02    0.292E-03
RMM:   9    -0.731242756515E+02   -0.19305E-04   -0.24002E-06    29   0.665E-03    0.133E-03
RMM:  10    -0.731243381728E+02   -0.62521E-04   -0.86808E-06    37   0.898E-03    0.110E-03
RMM:  11    -0.731243447834E+02   -0.66106E-05   -0.55593E-07    28   0.317E-03    0.623E-04
RMM:  12    -0.731243659450E+02   -0.21162E-04   -0.17571E-06    30   0.399E-03    0.410E-04
RMM:  13    -0.731243680202E+02   -0.20752E-05   -0.16900E-07    21   0.167E-03    0.246E-04
RMM:  14    -0.731243739617E+02   -0.59415E-05   -0.25662E-07    26   0.204E-03    0.353E-04
RMM:  15    -0.731243744391E+02   -0.47734E-06   -0.38113E-08    17   0.115E-03
   8 F= -.73209359E+02 E0= -.73209552E+02  d E =-.276296E+00
 curvature:  -0.30 expect dE=-0.266E+00 dE for cont linesearch -0.519E-07
 trial: gam= 0.59215 g(F)=  0.881E+00 g(S)=  0.000E+00 ort = 0.563E-03 (trialstep = 0.670E+00)
 search vector abs. value=  0.153E+01
 bond charge predicted
       N       E                     dE             d eps       ncg     rms          rms(c)
DAV:   1    -0.733015087406E+02   -0.17713E+00   -0.28000E+01    42   0.376E+01    0.134E+00
RMM:   2    -0.733384167466E+02   -0.36908E-01   -0.59245E-01    42   0.478E+00    0.907E-01
RMM:   3    -0.733327869074E+02    0.56298E-02   -0.46968E-02    43   0.123E+00    0.361E-01
RMM:   4    -0.733327096455E+02    0.77262E-04   -0.52931E-03    42   0.415E-01    0.818E-02
RMM:   5    -0.733327314774E+02   -0.21832E-04   -0.49373E-04    44   0.115E-01    0.326E-02
RMM:   6    -0.733328223560E+02   -0.90879E-04   -0.23257E-04    42   0.673E-02    0.111E-02
RMM:   7    -0.733323184861E+02    0.50387E-03   -0.19458E-05    42   0.212E-02    0.595E-03
RMM:   8    -0.733323991979E+02   -0.80712E-04   -0.13024E-05    40   0.145E-02    0.310E-03
RMM:   9    -0.733324417742E+02   -0.42576E-04   -0.55442E-06    37   0.940E-03    0.252E-03
RMM:  10    -0.733324902777E+02   -0.48503E-04   -0.47715E-06    35   0.789E-03    0.118E-03
RMM:  11    -0.733325157711E+02   -0.25493E-04   -0.21507E-06    31   0.547E-03    0.115E-03
RMM:  12    -0.733325362331E+02   -0.20462E-04   -0.23639E-06    31   0.480E-03    0.368E-04
RMM:  13    -0.733325453917E+02   -0.91587E-05   -0.52165E-07    24   0.275E-03    0.196E-04
RMM:  14    -0.733325482009E+02   -0.28091E-05   -0.24742E-07    22   0.193E-03    0.170E-04
RMM:  15    -0.733331304679E+02   -0.58227E-03   -0.11918E-07    20   0.145E-03    0.906E-05
RMM:  16    -0.733331311731E+02   -0.70524E-06   -0.35500E-08    16   0.119E-03
   9 F= -.73417678E+02 E0= -.73417678E+02  d E =-.208319E+00
 trial-energy change:   -0.208319  1 .order   -0.211605   -0.590956    0.167745
 step:   0.5189(harm=  0.5220)  dis= 0.05314  next Energy=   -73.436640 (dE=-0.227E+00)
 bond charge predicted
       N       E                     dE             d eps       ncg     rms          rms(c)
DAV:   1    -0.733499631449E+02   -0.16833E-01   -0.14352E+00    42   0.854E+00    0.290E-01
RMM:   2    -0.733516862912E+02   -0.17231E-02   -0.29326E-02    42   0.107E+00    0.203E-01
RMM:   3    -0.733514717190E+02    0.21457E-03   -0.26133E-03    43   0.288E-01    0.713E-02
RMM:   4    -0.733514679237E+02    0.37954E-05   -0.20788E-04    42   0.838E-02    0.196E-02
RMM:   5    -0.733514688195E+02   -0.89586E-06   -0.28042E-05    44   0.263E-02    0.759E-03
RMM:   6    -0.733514743683E+02   -0.55488E-05   -0.84224E-06    40   0.134E-02    0.237E-03
RMM:   7    -0.733514799358E+02   -0.55676E-05   -0.75524E-07    28   0.447E-03    0.132E-03
RMM:   8    -0.733514888624E+02   -0.89266E-05   -0.86427E-07    28   0.399E-03    0.633E-04
RMM:   9    -0.733514928301E+02   -0.39677E-05   -0.25906E-07    25   0.221E-03    0.409E-04
RMM:  10    -0.733515008999E+02   -0.80698E-05   -0.68838E-07    28   0.285E-03    0.357E-04
RMM:  11    -0.733515012836E+02   -0.38372E-06   -0.10116E-07    19   0.136E-03
  10 F= -.73436146E+02 E0= -.73436339E+02  d E =-.226788E+00
 curvature:  -0.45 expect dE=-0.297E+00 dE for cont linesearch -0.338E-06
 trial: gam= 0.76936 g(F)=  0.658E+00 g(S)=  0.000E+00 ort =-0.107E-02 (trialstep = 0.627E+00)
 search vector abs. value=  0.156E+01
 bond charge predicted
       N       E                     dE             d eps       ncg     rms          rms(c)
DAV:   1    -0.733817751080E+02   -0.30274E-01   -0.32066E+01    42   0.399E+01    0.139E+00
RMM:   2    -0.734092408545E+02   -0.27466E-01   -0.67567E-01    42   0.504E+00    0.888E-01
RMM:   3    -0.734024805560E+02    0.67603E-02   -0.64379E-02    44   0.134E+00    0.501E-01
RMM:   4    -0.734009688616E+02    0.15117E-02   -0.10945E-02    42   0.553E-01    0.127E-01
RMM:   5    -0.734011074161E+02   -0.13855E-03   -0.10301E-03    42   0.175E-01    0.425E-02
RMM:   6    -0.734012070089E+02   -0.99593E-04   -0.35060E-04    43   0.864E-02    0.209E-02
RMM:   7    -0.734012925804E+02   -0.85571E-04   -0.89962E-05    43   0.392E-02    0.109E-02
RMM:   8    -0.734013446890E+02   -0.52109E-04   -0.13003E-05    42   0.156E-02    0.322E-03
RMM:   9    -0.734014068961E+02   -0.62207E-04   -0.71233E-06    36   0.106E-02    0.262E-03
RMM:  10    -0.734014666115E+02   -0.59715E-04   -0.95800E-06    37   0.103E-02    0.206E-03
RMM:  11    -0.734014892682E+02   -0.22657E-04   -0.30259E-06    31   0.555E-03    0.825E-04
RMM:  12    -0.734015102216E+02   -0.20953E-04   -0.24687E-06    31   0.499E-03    0.416E-04
RMM:  13    -0.734015152772E+02   -0.50555E-05   -0.44379E-07    26   0.257E-03    0.318E-04
RMM:  14    -0.734015199605E+02   -0.46833E-05   -0.25593E-07    21   0.191E-03    0.201E-04
RMM:  15    -0.734015222083E+02   -0.22478E-05   -0.15833E-07    20   0.162E-03    0.885E-05
RMM:  16    -0.734015235420E+02   -0.13337E-05   -0.73923E-08    19   0.134E-03    0.663E-05
RMM:  17    -0.734015240022E+02   -0.46016E-06   -0.23008E-08    16   0.114E-03
  11 F= -.73485520E+02 E0= -.73485714E+02  d E =-.493741E-01
 trial-energy change:   -0.049374  1 .order   -0.051255   -0.411591    0.309080
 step:   0.3554(harm=  0.3578)  dis= 0.02961  next Energy=   -73.552546 (dE=-0.116E+00)
 bond charge predicted
       N       E                     dE             d eps       ncg     rms          rms(c)
DAV:   1    -0.734644399684E+02   -0.62916E-01   -0.60278E+00    42   0.173E+01    0.573E-01
RMM:   2    -0.734698684169E+02   -0.54284E-02   -0.13081E-01    43   0.221E+00    0.386E-01
RMM:   3    -0.734688006853E+02    0.10677E-02   -0.99343E-03    43   0.570E-01    0.179E-01
RMM:   4    -0.734686834898E+02    0.11720E-03   -0.20372E-03    42   0.241E-01    0.389E-02
RMM:   5    -0.734686951605E+02   -0.11671E-04   -0.10500E-04    43   0.581E-02    0.173E-02
RMM:   6    -0.734687170147E+02   -0.21854E-04   -0.54248E-05    42   0.343E-02    0.615E-03
RMM:   7    -0.734687297748E+02   -0.12760E-04   -0.29981E-06    32   0.903E-03    0.324E-03
RMM:   8    -0.734687565233E+02   -0.26748E-04   -0.50173E-06    37   0.920E-03    0.206E-03
RMM:   9    -0.734687643726E+02   -0.78493E-05   -0.15942E-06    28   0.570E-03    0.122E-03
RMM:  10    -0.734687867442E+02   -0.22372E-04   -0.17898E-06    29   0.473E-03    0.694E-04
RMM:  11    -0.734682112832E+02    0.57546E-03   -0.30930E-07    26   0.232E-03    0.347E-04
RMM:  12    -0.734682224784E+02   -0.11195E-04   -0.10324E-06    29   0.323E-03    0.386E-04
RMM:  13    -0.734682234905E+02   -0.10121E-05   -0.11510E-07    21   0.151E-03    0.167E-04
RMM:  14    -0.734682268784E+02   -0.33879E-05   -0.19653E-07    25   0.190E-03    0.415E-04
RMM:  15    -0.734682277917E+02   -0.91321E-06   -0.39832E-08    17   0.115E-03
  12 F= -.73552492E+02 E0= -.73552685E+02  d E =-.116345E+00
 curvature:  -0.42 expect dE=-0.114E+00 dE for cont linesearch -0.227E-07
 trial: gam= 0.38901 g(F)=  0.269E+00 g(S)=  0.000E+00 ort = 0.289E-03 (trialstep = 0.572E+00)
 search vector abs. value=  0.506E+00
 bond charge predicted
       N       E                     dE             d eps       ncg     rms          rms(c)
DAV:   1    -0.735246058226E+02   -0.56379E-01   -0.90422E+00    42   0.209E+01    0.659E-01
RMM:   2    -0.735329974828E+02   -0.83917E-02   -0.15707E-01    42   0.259E+00    0.455E-01
RMM:   3    -0.735317926101E+02    0.12049E-02   -0.11987E-02    44   0.585E-01    0.208E-01
RMM:   4    -0.735317830624E+02    0.95477E-05   -0.23908E-03    42   0.245E-01    0.471E-02
RMM:   5    -0.735318094622E+02   -0.26400E-04   -0.15026E-04    45   0.693E-02    0.234E-02
RMM:   6    -0.735318165613E+02   -0.70991E-05   -0.14967E-04    42   0.503E-02    0.907E-03
RMM:   7    -0.735318259919E+02   -0.94307E-05   -0.39799E-06    35   0.102E-02    0.512E-03
RMM:   8    -0.735318642169E+02   -0.38225E-04   -0.20364E-05    41   0.182E-02    0.513E-03
RMM:   9    -0.735318673589E+02   -0.31420E-05   -0.14502E-06    28   0.576E-03    0.270E-03
RMM:  10    -0.735318990124E+02   -0.31654E-04   -0.12592E-05    41   0.136E-02    0.415E-03
RMM:  11    -0.735319000483E+02   -0.10358E-05   -0.36053E-07    28   0.326E-03    0.310E-03
RMM:  12    -0.735319141040E+02   -0.14056E-04   -0.11057E-05    40   0.130E-02    0.379E-03
RMM:  13    -0.735319158403E+02   -0.17363E-05   -0.61460E-07    28   0.378E-03    0.197E-03
RMM:  14    -0.735313413518E+02    0.57449E-03   -0.21795E-06    30   0.633E-03    0.749E-04
RMM:  15    -0.735313425280E+02   -0.11762E-05   -0.23582E-07    27   0.279E-03    0.577E-04
RMM:  16    -0.735313435156E+02   -0.98758E-06   -0.30946E-08    17   0.131E-03
  13 F= -.73615566E+02 E0= -.73615759E+02  d E =-.630744E-01
 trial-energy change:   -0.063074  1 .order   -0.062964   -0.154180    0.028252
 step:   0.4837(harm=  0.4837)  dis= 0.02837  next Energy=   -73.617643 (dE=-0.652E-01)
 bond charge predicted
       N       E                     dE             d eps       ncg     rms          rms(c)
DAV:   1    -0.735339447585E+02   -0.26022E-02   -0.21664E-01    42   0.323E+00    0.102E-01
RMM:   2    -0.735341260239E+02   -0.18127E-03   -0.36953E-03    42   0.396E-01    0.703E-02
RMM:   3    -0.735335097511E+02    0.61627E-03   -0.29338E-04    44   0.914E-02    0.316E-02
RMM:   4    -0.735335118534E+02   -0.21023E-05   -0.50575E-05    42   0.361E-02    0.764E-03
RMM:   5    -0.735335125941E+02   -0.74068E-06   -0.30732E-06    31   0.107E-02
  14 F= -.73617743E+02 E0= -.73617936E+02  d E =-.652513E-01
 curvature:  -0.45 expect dE=-0.723E-01 dE for cont linesearch -0.358E-07
 trial: gam= 0.57321 g(F)=  0.159E+00 g(S)=  0.000E+00 ort = 0.200E-03 (trialstep = 0.555E+00)
 search vector abs. value=  0.326E+00
 bond charge predicted
       N       E                     dE             d eps       ncg     rms          rms(c)
DAV:   1    -0.735825664317E+02   -0.49055E-01   -0.48533E+00    42   0.155E+01    0.520E-01
RMM:   2    -0.735848250404E+02   -0.22586E-02   -0.68068E-02    42   0.170E+00    0.342E-01
RMM:   3    -0.735840215399E+02    0.80350E-03   -0.12001E-02    42   0.555E-01    0.891E-02
RMM:   4    -0.735839919830E+02    0.29557E-04   -0.50573E-04    43   0.127E-01    0.509E-02
RMM:   5    -0.735839907305E+02    0.12525E-05   -0.65088E-04    42   0.108E-01    0.195E-02
RMM:   6    -0.735839831776E+02    0.75529E-05   -0.84433E-05    42   0.408E-02    0.830E-03
RMM:   7    -0.735839966771E+02   -0.13500E-04   -0.91954E-06    42   0.150E-02    0.349E-03
RMM:   8    -0.735840012215E+02   -0.45444E-05   -0.33382E-06    35   0.789E-03    0.151E-03
RMM:   9    -0.735840146119E+02   -0.13390E-04   -0.10074E-06    28   0.465E-03    0.127E-03
RMM:  10    -0.735840174604E+02   -0.28485E-05   -0.32046E-07    28   0.259E-03    0.503E-04
RMM:  11    -0.735840289440E+02   -0.11484E-04   -0.11763E-06    29   0.404E-03    0.882E-04
RMM:  12    -0.735840303227E+02   -0.13787E-05   -0.15071E-07    24   0.179E-03    0.530E-04
RMM:  13    -0.735840335331E+02   -0.32104E-05   -0.30629E-07    28   0.228E-03    0.303E-04
RMM:  14    -0.735840348499E+02   -0.13167E-05   -0.49519E-08    17   0.116E-03    0.169E-04
RMM:  15    -0.735840361081E+02   -0.12582E-05   -0.37588E-08    17   0.120E-03    0.509E-05
RMM:  16    -0.735840366543E+02   -0.54625E-06   -0.20030E-08    16   0.114E-03
  15 F= -.73668112E+02 E0= -.73668305E+02  d E =-.503689E-01
 trial-energy change:   -0.050369  1 .order   -0.050162   -0.088366   -0.011958
 step:   0.6398(harm=  0.6414)  dis= 0.02928  next Energy=   -73.669031 (dE=-0.513E-01)
 bond charge predicted
       N       E                     dE             d eps       ncg     rms          rms(c)
DAV:   1    -0.735849350469E+02   -0.89894E-03   -0.11484E-01    42   0.238E+00    0.803E-02
RMM:   2    -0.735849927452E+02   -0.57698E-04   -0.16131E-03    42   0.260E-01    0.530E-02
RMM:   3    -0.735849826560E+02    0.10089E-04   -0.28370E-04    42   0.857E-02    0.143E-02
RMM:   4    -0.735849814717E+02    0.11844E-05   -0.11947E-05    43   0.195E-02    0.800E-03
RMM:   5    -0.735849816344E+02   -0.16269E-06   -0.14232E-05    42   0.162E-02    0.306E-03
RMM:   6    -0.735849815828E+02    0.51559E-07   -0.18113E-06    28   0.636E-03
  16 F= -.73669032E+02 E0= -.73669225E+02  d E =-.512889E-01
 curvature:  -0.66 expect dE=-0.128E+00 dE for cont linesearch -0.266E-10
 trial: gam= 1.25566 g(F)=  0.196E+00 g(S)=  0.000E+00 ort = 0.364E-05 (trialstep = 0.263E+00)
 search vector abs. value=  0.709E+00
 bond charge predicted
       N       E                     dE             d eps       ncg     rms          rms(c)
DAV:   1    -0.736182558431E+02   -0.33274E-01   -0.21499E+00    42   0.103E+01    0.352E-01
RMM:   2    -0.736199268269E+02   -0.16710E-02   -0.32275E-02    42   0.112E+00    0.232E-01
RMM:   3    -0.736196639909E+02    0.26284E-03   -0.36411E-03    44   0.321E-01    0.701E-02
RMM:   4    -0.736196800470E+02   -0.16056E-04   -0.21594E-04    42   0.830E-02    0.257E-02
RMM:   5    -0.736196821233E+02   -0.20763E-05   -0.71086E-05    43   0.386E-02    0.705E-03
RMM:   6    -0.736196880071E+02   -0.58839E-05   -0.33915E-06    34   0.103E-02    0.425E-03
RMM:   7    -0.736196998322E+02   -0.11825E-04   -0.38521E-06    35   0.890E-03    0.155E-03
RMM:   8    -0.736197040084E+02   -0.41762E-05   -0.60916E-07    28   0.390E-03    0.729E-04
RMM:   9    -0.736197160654E+02   -0.12057E-04   -0.11672E-06    29   0.423E-03    0.107E-03
RMM:  10    -0.736197179585E+02   -0.18932E-05   -0.22867E-07    27   0.217E-03    0.328E-04
RMM:  11    -0.736197250863E+02   -0.71277E-05   -0.63320E-07    28   0.292E-03    0.446E-04
RMM:  12    -0.736197263007E+02   -0.12144E-05   -0.13896E-07    20   0.142E-03    0.229E-04
RMM:  13    -0.736197282018E+02   -0.19011E-05   -0.18759E-07    25   0.168E-03    0.247E-04
RMM:  14    -0.736197286188E+02   -0.41700E-06   -0.25904E-08    15   0.977E-04
  17 F= -.73703767E+02 E0= -.73703767E+02  d E =-.347348E-01
 trial-energy change:   -0.034735  1 .order   -0.034136   -0.051336   -0.016937
 step:   0.3751(harm=  0.3918)  dis= 0.02409  next Energy=   -73.707442 (dE=-0.384E-01)
 bond charge predicted
       N       E                     dE             d eps       ncg     rms          rms(c)
DAV:   1    -0.736229946182E+02   -0.32664E-02   -0.39490E-01    42   0.442E+00    0.151E-01
RMM:   2    -0.736232828424E+02   -0.28822E-03   -0.58940E-03    42   0.477E-01    0.992E-02
RMM:   3    -0.736232467671E+02    0.36075E-04   -0.67065E-04    44   0.138E-01    0.296E-02
RMM:   4    -0.736232491453E+02   -0.23782E-05   -0.38724E-05    42   0.352E-02    0.108E-02
RMM:   5    -0.736232489980E+02    0.14739E-06   -0.12550E-05    42   0.164E-02    0.303E-03
RMM:   6    -0.736232501029E+02   -0.11050E-05   -0.62205E-07    28   0.453E-03    0.176E-03
RMM:   7    -0.736232524645E+02   -0.23616E-05   -0.62583E-07    28   0.385E-03    0.501E-04
RMM:   8    -0.736232538125E+02   -0.13480E-05   -0.13822E-07    26   0.189E-03    0.281E-04
RMM:   9    -0.736232565936E+02   -0.27811E-05   -0.23543E-07    25   0.190E-03    0.326E-04
RMM:  10    -0.736232569995E+02   -0.40590E-06   -0.26738E-08    15   0.115E-03
  18 F= -.73707285E+02 E0= -.73707479E+02  d E =-.382533E-01
 curvature:  -0.70 expect dE=-0.568E-01 dE for cont linesearch -0.692E-04
 trial: gam= 0.39390 g(F)=  0.813E-01 g(S)=  0.000E+00 ort = 0.838E-02 (trialstep = 0.285E+00)
 search vector abs. value=  0.198E+00
 bond charge predicted
       N       E                     dE             d eps       ncg     rms          rms(c)
DAV:   1    -0.736394786458E+02   -0.16222E-01   -0.80728E-01    42   0.632E+00    0.192E-01
RMM:   2    -0.736403599090E+02   -0.88126E-03   -0.13025E-02    42   0.723E-01    0.138E-01
RMM:   3    -0.736402512487E+02    0.10866E-03   -0.10452E-03    42   0.186E-01    0.424E-02
RMM:   4    -0.736402623740E+02   -0.11125E-04   -0.12741E-04    43   0.614E-02    0.119E-02
RMM:   5    -0.736402635937E+02   -0.12197E-05   -0.18467E-05    42   0.221E-02    0.377E-03
RMM:   6    -0.736402672765E+02   -0.36828E-05   -0.13472E-06    29   0.656E-03    0.176E-03
RMM:   7    -0.736402738446E+02   -0.65681E-05   -0.92135E-07    28   0.492E-03    0.716E-04
RMM:   8    -0.736402784854E+02   -0.46408E-05   -0.44893E-07    28   0.318E-03    0.430E-04
RMM:   9    -0.736402834804E+02   -0.49950E-05   -0.37568E-07    26   0.247E-03    0.209E-04
RMM:  10    -0.736402867640E+02   -0.32836E-05   -0.31311E-07    26   0.206E-03    0.159E-04
RMM:  11    -0.736402890972E+02   -0.23332E-05   -0.17136E-07    22   0.163E-03    0.711E-05
RMM:  12    -0.736402900260E+02   -0.92877E-06   -0.10422E-07    19   0.141E-03
  19 F= -.73724339E+02 E0= -.73724339E+02  d E =-.170540E-01
 trial-energy change:   -0.017054  1 .order   -0.016483   -0.024107   -0.008859
 step:   0.4102(harm=  0.4507)  dis= 0.01222  next Energy=   -73.726332 (dE=-0.190E-01)
 bond charge predicted
       N       E                     dE             d eps       ncg     rms          rms(c)
DAV:   1    -0.736425572715E+02   -0.22682E-02   -0.15571E-01    42   0.278E+00    0.843E-02
RMM:   2    -0.736427241634E+02   -0.16689E-03   -0.25045E-03    42   0.317E-01    0.603E-02
RMM:   3    -0.736427052800E+02    0.18883E-04   -0.19908E-04    42   0.813E-02    0.189E-02
RMM:   4    -0.736427067110E+02   -0.14310E-05   -0.24404E-05    43   0.269E-02    0.531E-03
RMM:   5    -0.736427067097E+02    0.13538E-08   -0.31222E-06    32   0.953E-03
  20 F= -.73726763E+02 E0= -.73726763E+02  d E =-.194779E-01
 curvature:  -0.50 expect dE=-0.209E-01 dE for cont linesearch -0.149E-03
 trial: gam= 0.47186 g(F)=  0.422E-01 g(S)=  0.000E+00 ort = 0.771E-02 (trialstep = 0.310E+00)
 search vector abs. value=  0.936E-01
 bond charge predicted
       N       E                     dE             d eps       ncg     rms          rms(c)
DAV:   1    -0.736533621390E+02   -0.10655E-01   -0.35772E-01    42   0.425E+00    0.136E-01
RMM:   2    -0.736536495993E+02   -0.28746E-03   -0.54775E-03    42   0.484E-01    0.924E-02
RMM:   3    -0.736536250229E+02    0.24576E-04   -0.70498E-04    42   0.140E-01    0.299E-02
RMM:   4    -0.736536316039E+02   -0.65810E-05   -0.47921E-05    43   0.390E-02    0.133E-02
RMM:   5    -0.736536348231E+02   -0.32191E-05   -0.24632E-05    42   0.229E-02    0.372E-03
RMM:   6    -0.736536360937E+02   -0.12706E-05   -0.83522E-07    28   0.551E-03    0.208E-03
RMM:   7    -0.736536403798E+02   -0.42861E-05   -0.16900E-06    28   0.635E-03    0.110E-03
RMM:   8    -0.736536416839E+02   -0.13041E-05   -0.28187E-07    28   0.279E-03    0.397E-04
RMM:   9    -0.736536455544E+02   -0.38705E-05   -0.40227E-07    28   0.259E-03    0.636E-04
RMM:  10    -0.736536467568E+02   -0.12024E-05   -0.10312E-07    20   0.148E-03    0.267E-04
RMM:  11    -0.736536490524E+02   -0.22956E-05   -0.28704E-07    28   0.209E-03    0.292E-04
RMM:  12    -0.736536495794E+02   -0.52705E-06   -0.41686E-08    16   0.109E-03
  21 F= -.73737836E+02 E0= -.73737836E+02  d E =-.110733E-01
 trial-energy change:   -0.011073  1 .order   -0.011070   -0.014224   -0.007915
 step:   0.6991(harm=  0.6991)  dis= 0.01515  next Energy=   -73.742798 (dE=-0.160E-01)
 bond charge predicted
       N       E                     dE             d eps       ncg     rms          rms(c)
DAV:   1    -0.736580033420E+02   -0.43543E-02   -0.56330E-01    42   0.533E+00    0.171E-01
RMM:   2    -0.736584610712E+02   -0.45773E-03   -0.86849E-03    42   0.609E-01    0.116E-01
RMM:   3    -0.736584172382E+02    0.43833E-04   -0.11181E-03    42   0.176E-01    0.379E-02
RMM:   4    -0.736584248026E+02   -0.75644E-05   -0.75493E-05    43   0.490E-02    0.168E-02
RMM:   5    -0.736584272091E+02   -0.24064E-05   -0.38387E-05    42   0.286E-02    0.464E-03
RMM:   6    -0.736584283830E+02   -0.11739E-05   -0.13114E-06    28   0.689E-03    0.256E-03
RMM:   7    -0.736584330110E+02   -0.46280E-05   -0.24576E-06    29   0.767E-03    0.132E-03
RMM:   8    -0.736584345533E+02   -0.15423E-05   -0.38704E-07    28   0.333E-03    0.503E-04
RMM:   9    -0.736584392140E+02   -0.46607E-05   -0.63790E-07    28   0.337E-03    0.899E-04
RMM:  10    -0.736584405096E+02   -0.12956E-05   -0.17478E-07    25   0.186E-03    0.304E-04
RMM:  11    -0.736584432198E+02   -0.27103E-05   -0.25686E-07    26   0.197E-03    0.132E-04
RMM:  12    -0.736584441460E+02   -0.92617E-06   -0.67003E-08    17   0.127E-03
  22 F= -.73742789E+02 E0= -.73742789E+02  d E =-.160257E-01
 curvature:  -0.71 expect dE=-0.457E-01 dE for cont linesearch -0.340E-07
 trial: gam= 1.62752 g(F)=  0.641E-01 g(S)=  0.000E+00 ort =-0.668E-04 (trialstep = 0.116E+00)
 search vector abs. value=  0.312E+00
 bond charge predicted
       N       E                     dE             d eps       ncg     rms          rms(c)
DAV:   1    -0.736645184080E+02   -0.60752E-02   -0.15047E-01    42   0.273E+00    0.956E-02
RMM:   2    -0.736646318276E+02   -0.11342E-03   -0.23409E-03    42   0.311E-01    0.624E-02
RMM:   3    -0.736646231845E+02    0.86430E-05   -0.34682E-04    42   0.966E-02    0.170E-02
RMM:   4    -0.736646238335E+02   -0.64900E-06   -0.16241E-05    43   0.240E-02    0.865E-03
RMM:   5    -0.736646240764E+02   -0.24291E-06   -0.16067E-05    42   0.176E-02    0.263E-03
RMM:   6    -0.736646245213E+02   -0.44486E-06   -0.35842E-07    28   0.371E-03
  23 F= -.73749101E+02 E0= -.73749101E+02  d E =-.631191E-02
 trial-energy change:   -0.006312  1 .order   -0.006322   -0.007453   -0.005192
 step:   0.3837(harm=  0.3837)  dis= 0.01624  next Energy=   -73.755073 (dE=-0.123E-01)
 bond charge predicted
       N       E                     dE             d eps       ncg     rms          rms(c)
DAV:   1    -0.736692233214E+02   -0.45992E-02   -0.79145E-01    42   0.626E+00    0.219E-01
RMM:   2    -0.736698373785E+02   -0.61406E-03   -0.12216E-02    42   0.709E-01    0.142E-01
RMM:   3    -0.736703616591E+02   -0.52428E-03   -0.17854E-03    42   0.220E-01    0.392E-02
RMM:   4    -0.736703669919E+02   -0.53328E-05   -0.84512E-05    43   0.549E-02    0.197E-02
RMM:   5    -0.736703698461E+02   -0.28542E-05   -0.80166E-05    42   0.395E-02    0.593E-03
RMM:   6    -0.736703723451E+02   -0.24990E-05   -0.19733E-06    29   0.842E-03    0.330E-03
RMM:   7    -0.736703823255E+02   -0.99804E-05   -0.67637E-06    41   0.113E-02    0.296E-03
RMM:   8    -0.736703834668E+02   -0.11413E-05   -0.15803E-06    28   0.579E-03    0.662E-04
RMM:   9    -0.736703926744E+02   -0.92076E-05   -0.18704E-06    29   0.616E-03    0.179E-03
RMM:  10    -0.736703935042E+02   -0.82975E-06   -0.30107E-07    28   0.271E-03
  24 F= -.73755158E+02 E0= -.73755158E+02  d E =-.123687E-01
 curvature:  -0.93 expect dE=-0.280E-01 dE for cont linesearch -0.299E-05
 trial: gam= 0.36303 g(F)=  0.299E-01 g(S)=  0.000E+00 ort = 0.998E-03 (trialstep = 0.170E+00)
 search vector abs. value=  0.717E-01
 bond charge predicted
       N       E                     dE             d eps       ncg     rms          rms(c)
DAV:   1    -0.736744978307E+02   -0.41052E-02   -0.75853E-02    52   0.193E+00    0.707E-02
RMM:   2    -0.736745769578E+02   -0.79127E-04   -0.13575E-03    42   0.242E-01    0.491E-02
RMM:   3    -0.736745654389E+02    0.11519E-04   -0.11729E-04    42   0.606E-02    0.162E-02
RMM:   4    -0.736745666732E+02   -0.12344E-05   -0.12375E-05    42   0.199E-02    0.434E-03
RMM:   5    -0.736745665743E+02    0.98913E-07   -0.10797E-06    28   0.613E-03
  25 F= -.73759355E+02 E0= -.73759355E+02  d E =-.419752E-02
 trial-energy change:   -0.004198  1 .order   -0.004190   -0.005146   -0.003233
 step:   0.4571(harm=  0.4571)  dis= 0.00873  next Energy=   -73.762081 (dE=-0.692E-02)
 bond charge predicted
       N       E                     dE             d eps       ncg     rms          rms(c)
DAV:   1    -0.736770640604E+02   -0.24974E-02   -0.21729E-01    42   0.327E+00    0.120E-01
RMM:   2    -0.736772883970E+02   -0.22434E-03   -0.38893E-03    42   0.410E-01    0.833E-02
RMM:   3    -0.736772478655E+02    0.40531E-04   -0.33918E-04    42   0.103E-01    0.274E-02
RMM:   4    -0.736772493385E+02   -0.14730E-05   -0.35171E-05    42   0.335E-02    0.741E-03
RMM:   5    -0.736772490652E+02    0.27328E-06   -0.35948E-06    33   0.105E-02
  26 F= -.73762077E+02 E0= -.73762077E+02  d E =-.691905E-02
 curvature:  -0.54 expect dE=-0.982E-02 dE for cont linesearch -0.148E-06
 trial: gam= 0.62669 g(F)=  0.181E-01 g(S)=  0.000E+00 ort =-0.140E-03 (trialstep = 0.227E+00)
 search vector abs. value=  0.461E-01
 bond charge predicted
       N       E                     dE             d eps       ncg     rms          rms(c)
DAV:   1    -0.736804333532E+02   -0.31840E-02   -0.81674E-02    47   0.200E+00    0.748E-02
RMM:   2    -0.736805039026E+02   -0.70549E-04   -0.15110E-03    42   0.246E-01    0.497E-02
RMM:   3    -0.736804930743E+02    0.10828E-04   -0.23455E-04    43   0.769E-02    0.184E-02
RMM:   4    -0.736804935550E+02   -0.48075E-06   -0.93655E-06    42   0.177E-02
  27 F= -.73765321E+02 E0= -.73765321E+02  d E =-.324463E-02
 trial-energy change:   -0.003245  1 .order   -0.003238   -0.004102   -0.002375
 step:   0.5400(harm=  0.5400)  dis= 0.01111  next Energy=   -73.766948 (dE=-0.487E-02)
 bond charge predicted
       N       E                     dE             d eps       ncg     rms          rms(c)
DAV:   1    -0.736814640749E+02   -0.97100E-03   -0.15458E-01    42   0.275E+00    0.103E-01
RMM:   2    -0.736816005773E+02   -0.13650E-03   -0.28998E-03    42   0.341E-01    0.685E-02
RMM:   3    -0.736815759442E+02    0.24633E-04   -0.45121E-04    43   0.106E-01    0.257E-02
RMM:   4    -0.736815754480E+02    0.49617E-06   -0.18139E-05    42   0.247E-02    0.128E-02
RMM:   5    -0.736815769083E+02   -0.14603E-05   -0.16975E-05    42   0.175E-02    0.240E-03
RMM:   6    -0.736815780616E+02   -0.11533E-05   -0.30518E-07    28   0.339E-03    0.147E-03
RMM:   7    -0.736815809924E+02   -0.29307E-05   -0.96102E-07    28   0.446E-03    0.835E-04
RMM:   8    -0.736815820161E+02   -0.10237E-05   -0.19916E-07    28   0.207E-03    0.252E-04
RMM:   9    -0.736815842199E+02   -0.22038E-05   -0.22137E-07    26   0.203E-03    0.678E-04
RMM:  10    -0.736815854456E+02   -0.12258E-05   -0.64841E-08    18   0.138E-03    0.240E-04
RMM:  11    -0.736815865275E+02   -0.10819E-05   -0.23375E-07    27   0.204E-03    0.374E-04
RMM:  12    -0.736815871196E+02   -0.59202E-06   -0.13987E-08    15   0.992E-04
  28 F= -.73766413E+02 E0= -.73766606E+02  d E =-.433626E-02
 curvature:  -0.69 expect dE=-0.165E-01 dE for cont linesearch -0.344E-06
 trial: gam= 1.28658 g(F)=  0.240E-01 g(S)=  0.000E+00 ort = 0.152E-03 (trialstep = 0.133E+00)
 search vector abs. value=  0.101E+00
 bond charge predicted
       N       E                     dE             d eps       ncg     rms          rms(c)
DAV:   1    -0.736849185855E+02   -0.33321E-02   -0.56908E-02    52   0.165E+00    0.650E-02
RMM:   2    -0.736849569651E+02   -0.38380E-04   -0.86138E-04    42   0.192E-01    0.412E-02
RMM:   3    -0.736849539743E+02    0.29908E-05   -0.87824E-05    42   0.504E-02    0.127E-02
RMM:   4    -0.736849553166E+02   -0.13423E-05   -0.78606E-06    43   0.160E-02    0.455E-03
RMM:   5    -0.736849550287E+02    0.28790E-06   -0.17036E-06    29   0.626E-03
  29 F= -.73769812E+02 E0= -.73769812E+02  d E =-.339870E-02
 ZBRENT: can't locate minimum, use default step
 trial-energy change:   -0.003399  1 .order   -0.002818   -0.003207   -0.002428
 step:   0.5311(harm=  0.5468)  dis= 0.01932  next Energy=   -73.773016 (dE=-0.660E-02)
 bond charge predicted
       N       E                     dE             d eps       ncg     rms          rms(c)
DAV:   1    -0.736877651074E+02   -0.28098E-02   -0.51280E-01    42   0.495E+00    0.195E-01
RMM:   2    -0.736887034504E+02   -0.93834E-03   -0.77370E-03    42   0.575E-01    0.124E-01
RMM:   3    -0.736886550242E+02    0.48426E-04   -0.79341E-04    42   0.151E-01    0.379E-02
RMM:   4    -0.736886664348E+02   -0.11411E-04   -0.70972E-05    43   0.479E-02    0.137E-02
RMM:   5    -0.736886653085E+02    0.11263E-05   -0.18618E-05    42   0.193E-02    0.362E-03
RMM:   6    -0.736886670210E+02   -0.17124E-05   -0.76786E-07    28   0.514E-03    0.178E-03
RMM:   7    -0.736886702555E+02   -0.32345E-05   -0.86783E-07    28   0.428E-03    0.656E-04
RMM:   8    -0.736886720756E+02   -0.18201E-05   -0.18805E-07    28   0.220E-03    0.398E-04
RMM:   9    -0.736886756073E+02   -0.35317E-05   -0.22218E-07    24   0.183E-03    0.184E-04
RMM:  10    -0.736886765989E+02   -0.99160E-06   -0.57879E-08    17   0.128E-03
  30 F= -.73773612E+02 E0= -.73773612E+02  d E =-.719940E-02
 curvature:  -1.14 expect dE=-0.158E-01 dE for cont linesearch -0.640E-05
 trial: gam= 0.57919 g(F)=  0.138E-01 g(S)=  0.000E+00 ort = 0.753E-03 (trialstep = 0.212E+00)
 search vector abs. value=  0.485E-01
 bond charge predicted
       N       E                     dE             d eps       ncg     rms          rms(c)
DAV:   1    -0.736904160076E+02   -0.17404E-02   -0.84900E-02    42   0.201E+00    0.736E-02
RMM:   2    -0.736904916277E+02   -0.75620E-04   -0.13603E-03    42   0.237E-01    0.492E-02
RMM:   3    -0.736904842748E+02    0.73529E-05   -0.11419E-04    42   0.579E-02    0.181E-02
RMM:   4    -0.736904850158E+02   -0.74097E-06   -0.12875E-05    42   0.201E-02    0.480E-03
RMM:   5    -0.736904847150E+02    0.30072E-06   -0.12186E-06    28   0.639E-03
  31 F= -.73775457E+02 E0= -.73775650E+02  d E =-.184455E-02
 trial-energy change:   -0.001845  1 .order   -0.002421   -0.003035   -0.001806
 step:   0.5249(harm=  0.5249)  dis= 0.01124  next Energy=   -73.777361 (dE=-0.375E-02)
 bond charge predicted
       N       E                     dE             d eps       ncg     rms          rms(c)
DAV:   1    -0.736916277279E+02   -0.11427E-02   -0.18384E-01    52   0.295E+00    0.108E-01
RMM:   2    -0.736917904251E+02   -0.16270E-03   -0.29456E-03    42   0.348E-01    0.723E-02
RMM:   3    -0.736917726715E+02    0.17754E-04   -0.25280E-04    42   0.858E-02    0.264E-02
RMM:   4    -0.736917741135E+02   -0.14420E-05   -0.27931E-05    42   0.295E-02    0.717E-03
RMM:   5    -0.736917739289E+02    0.18452E-06   -0.29379E-06    30   0.960E-03
  32 F= -.73776796E+02 E0= -.73776989E+02  d E =-.318380E-02
 curvature:  -0.89 expect dE=-0.101E-01 dE for cont linesearch -0.285E-07
 trial: gam= 0.86221 g(F)=  0.114E-01 g(S)=  0.000E+00 ort = 0.394E-04 (trialstep = 0.275E+00)
 search vector abs. value=  0.475E-01
 bond charge predicted
       N       E                     dE             d eps       ncg     rms          rms(c)
DAV:   1    -0.736943232990E+02   -0.25492E-02   -0.14934E-01    42   0.270E+00    0.939E-02
RMM:   2    -0.736944183403E+02   -0.95041E-04   -0.21853E-03    43   0.295E-01    0.620E-02
RMM:   3    -0.736944004767E+02    0.17864E-04   -0.20093E-04    43   0.793E-02    0.221E-02
RMM:   4    -0.736944018599E+02   -0.13832E-05   -0.18285E-05    42   0.236E-02    0.647E-03
RMM:   5    -0.736944027085E+02   -0.84853E-06   -0.22949E-06    28   0.833E-03
  33 F= -.73779477E+02 E0= -.73779477E+02  d E =-.268042E-02
 trial-energy change:   -0.002680  1 .order   -0.002103   -0.003137   -0.001069
 step:   0.3228(harm=  0.4171)  dis= 0.00658  next Energy=   -73.779573 (dE=-0.278E-02)
 bond charge predicted
       N       E                     dE             d eps       ncg     rms          rms(c)
DAV:   1    -0.736945477320E+02   -0.14587E-03   -0.45480E-03    52   0.472E-01    0.164E-02
RMM:   2    -0.736945508756E+02   -0.31436E-05   -0.67575E-05    42   0.523E-02    0.108E-02
RMM:   3    -0.736945508302E+02    0.45372E-07   -0.73843E-06    42   0.147E-02
  34 F= -.73779633E+02 E0= -.73779633E+02  d E =-.283722E-02
 curvature:  -0.49 expect dE=-0.309E-02 dE for cont linesearch -0.688E-04
 ZBRENT: increasing intervall
 opt :   0.4187  next Energy=   -73.779757 (dE=-0.296E-02)
 bond charge predicted
       N       E                     dE             d eps       ncg     rms          rms(c)
DAV:   1    -0.736946476272E+02   -0.96752E-04   -0.18089E-02    52   0.942E-01    0.332E-02
RMM:   2    -0.736946591865E+02   -0.11559E-04   -0.26727E-04    43   0.103E-01    0.221E-02
RMM:   3    -0.736946568407E+02    0.23459E-05   -0.24923E-05    43   0.281E-02    0.756E-03
RMM:   4    -0.736946570981E+02   -0.25739E-06   -0.17355E-06    28   0.812E-03
  35 F= -.73779757E+02 E0= -.73779757E+02  d E =-.296058E-02
 curvature:  -0.88 expect dE=-0.835E-02 dE for cont linesearch -0.102E-08
 trial: gam= 0.81372 g(F)=  0.953E-02 g(S)=  0.000E+00 ort = 0.742E-05 (trialstep = 0.304E+00)
 search vector abs. value=  0.410E-01
 bond charge predicted
       N       E                     dE             d eps       ncg     rms          rms(c)
DAV:   1    -0.736965946278E+02   -0.19378E-02   -0.16207E-01    42   0.276E+00    0.961E-02
RMM:   2    -0.736967032064E+02   -0.10858E-03   -0.21754E-03    42   0.298E-01    0.621E-02
RMM:   3    -0.736966918237E+02    0.11383E-04   -0.19887E-04    42   0.771E-02    0.182E-02
RMM:   4    -0.736966947845E+02   -0.29608E-05   -0.19359E-05    43   0.241E-02    0.536E-03
RMM:   5    -0.736966956119E+02   -0.82741E-06   -0.17366E-06    29   0.780E-03
  36 F= -.73781855E+02 E0= -.73781855E+02  d E =-.209782E-02
 trial-energy change:   -0.002098  1 .order   -0.002101   -0.002895   -0.001307
 step:   0.5536(harm=  0.5536)  dis= 0.00977  next Energy=   -73.782396 (dE=-0.264E-02)
 bond charge predicted
       N       E                     dE             d eps       ncg     rms          rms(c)
DAV:   1    -0.736965503988E+02    0.14439E-03   -0.10989E-01    42   0.227E+00    0.791E-02
RMM:   2    -0.736966255560E+02   -0.75157E-04   -0.14927E-03    42   0.247E-01    0.513E-02
RMM:   3    -0.736966180095E+02    0.75465E-05   -0.13754E-04    42   0.639E-02    0.151E-02
RMM:   4    -0.736966204161E+02   -0.24066E-05   -0.13359E-05    42   0.201E-02    0.448E-03
RMM:   5    -0.736966213539E+02   -0.93779E-06   -0.12706E-06    29   0.670E-03
  37 F= -.73781826E+02 E0= -.73782019E+02  d E =-.206935E-02
 curvature:  -1.19 expect dE=-0.778E-02 dE for cont linesearch -0.254E-06
 trial: gam= 0.66932 g(F)=  0.654E-02 g(S)=  0.000E+00 ort = 0.936E-04 (trialstep = 0.354E+00)
 search vector abs. value=  0.250E-01
 bond charge predicted
       N       E                     dE             d eps       ncg     rms          rms(c)
DAV:   1    -0.736980263306E+02   -0.14059E-02   -0.11755E-01    42   0.238E+00    0.888E-02
RMM:   2    -0.736980967653E+02   -0.70435E-04   -0.16038E-03    42   0.265E-01    0.575E-02
RMM:   3    -0.736980900757E+02    0.66896E-05   -0.19619E-04    42   0.727E-02    0.153E-02
RMM:   4    -0.736980893801E+02    0.69555E-06   -0.12128E-05    42   0.196E-02    0.631E-03
RMM:   5    -0.736980897310E+02   -0.35091E-06   -0.41794E-06    36   0.965E-03
  38 F= -.73783318E+02 E0= -.73783511E+02  d E =-.149192E-02
 trial-energy change:   -0.001492  1 .order   -0.001488   -0.002334   -0.000642
 step:   0.4879(harm=  0.4879)  dis= 0.00736  next Energy=   -73.783436 (dE=-0.161E-02)
 bond charge predicted
       N       E                     dE             d eps       ncg     rms          rms(c)
DAV:   1    -0.736981955321E+02   -0.10615E-03   -0.16928E-02    52   0.905E-01    0.336E-02
RMM:   2    -0.736982064326E+02   -0.10900E-04   -0.23449E-04    42   0.102E-01    0.220E-02
RMM:   3    -0.736982058275E+02    0.60507E-06   -0.28289E-05    42   0.277E-02    0.599E-03
RMM:   4    -0.736982059495E+02   -0.12200E-06   -0.14192E-06    28   0.750E-03
  39 F= -.73783442E+02 E0= -.73783636E+02  d E =-.161646E-02
 curvature:  -0.92 expect dE=-0.462E-02 dE for cont linesearch -0.695E-08
 trial: gam= 0.78175 g(F)=  0.499E-02 g(S)=  0.000E+00 ort = 0.137E-04 (trialstep = 0.381E+00)
 search vector abs. value=  0.203E-01
 bond charge predicted
       N       E                     dE             d eps       ncg     rms          rms(c)
DAV:   1    -0.736996953191E+02   -0.14895E-02   -0.10878E-01    42   0.229E+00    0.854E-02
RMM:   2    -0.736998000017E+02   -0.10468E-03   -0.19635E-03    42   0.280E-01    0.580E-02
RMM:   3    -0.736997759129E+02    0.24089E-04   -0.24227E-04    42   0.847E-02    0.161E-02
RMM:   4    -0.736997761850E+02   -0.27206E-06   -0.15690E-05    43   0.229E-02    0.725E-03
RMM:   5    -0.736997758954E+02    0.28959E-06   -0.92155E-06    42   0.133E-02
  40 F= -.73785029E+02 E0= -.73785029E+02  d E =-.158656E-02
 trial-energy change:   -0.001587  1 .order   -0.001010   -0.001903   -0.000117
 step:   0.3889(harm=  0.4054)  dis= 0.00435  next Energy=   -73.785030 (dE=-0.159E-02)
 bond charge predicted
       N       E                     dE             d eps       ncg     rms          rms(c)
DAV:   1    -0.736997781088E+02   -0.19238E-05   -0.53227E-05    60   0.503E-02    0.241E-03
RMM:   2    -0.736997784901E+02   -0.38132E-06   -0.82836E-07    28   0.600E-03
  41 F= -.73785032E+02 E0= -.73785032E+02  d E =-.158951E-02
 curvature:  -0.46 expect dE=-0.188E-02 dE for cont linesearch -0.105E-05
 trial: gam= 0.77419 g(F)=  0.408E-02 g(S)=  0.000E+00 ort = 0.215E-03 (trialstep = 0.382E+00)
 search vector abs. value=  0.166E-01
 bond charge predicted
       N       E                     dE             d eps       ncg     rms          rms(c)
DAV:   1    -0.737010668692E+02   -0.12888E-02   -0.83450E-02    42   0.200E+00    0.730E-02
RMM:   2    -0.737011264166E+02   -0.59547E-04   -0.11469E-03    42   0.217E-01    0.473E-02
RMM:   3    -0.737011220882E+02    0.43284E-05   -0.94125E-05    42   0.536E-02    0.157E-02
RMM:   4    -0.737011230307E+02   -0.94253E-06   -0.11281E-05    43   0.181E-02    0.434E-03
RMM:   5    -0.737011233681E+02   -0.33736E-06   -0.97122E-07    28   0.588E-03
  42 F= -.73786379E+02 E0= -.73786379E+02  d E =-.134700E-02
 trial-energy change:   -0.001347  1 .order   -0.001346   -0.001625   -0.001067
 step:   1.1135(harm=  1.1135)  dis= 0.01082  next Energy=   -73.787399 (dE=-0.237E-02)
 bond charge predicted
       N       E                     dE             d eps       ncg     rms          rms(c)
DAV:   1    -0.737013610764E+02   -0.23805E-03   -0.30592E-01    42   0.384E+00    0.139E-01
RMM:   2    -0.737021612801E+02   -0.80020E-03   -0.42196E-03    42   0.417E-01    0.904E-02
RMM:   3    -0.737021420059E+02    0.19274E-04   -0.34340E-04    42   0.103E-01    0.302E-02
RMM:   4    -0.737021451910E+02   -0.31851E-05   -0.40745E-05    42   0.347E-02    0.827E-03
RMM:   5    -0.737021458236E+02   -0.63268E-06   -0.41091E-06    32   0.113E-02
  43 F= -.73787401E+02 E0= -.73787401E+02  d E =-.236919E-02
 curvature:  -2.17 expect dE=-0.177E-01 dE for cont linesearch -0.417E-10
 trial: gam= 2.13811 g(F)=  0.817E-02 g(S)=  0.000E+00 ort =-0.564E-06 (trialstep = 0.104E+00)
 search vector abs. value=  0.840E-01
 bond charge predicted
       N       E                     dE             d eps       ncg     rms          rms(c)
DAV:   1    -0.737028893455E+02   -0.74415E-03   -0.34572E-02    42   0.128E+00    0.441E-02
RMM:   2    -0.737029171040E+02   -0.27758E-04   -0.43501E-04    42   0.134E-01    0.291E-02
RMM:   3    -0.737029180444E+02   -0.94043E-06   -0.35837E-05    42   0.334E-02    0.880E-03
RMM:   4    -0.737029197294E+02   -0.16849E-05   -0.32499E-06    32   0.104E-02    0.280E-03
RMM:   5    -0.737029212708E+02   -0.15415E-05   -0.76739E-07    28   0.515E-03    0.780E-04
RMM:   6    -0.737029225842E+02   -0.13134E-05   -0.23274E-07    28   0.285E-03    0.381E-04
RMM:   7    -0.737029238019E+02   -0.12177E-05   -0.54744E-08    20   0.161E-03    0.191E-04
RMM:   8    -0.737029252214E+02   -0.14195E-05   -0.97651E-08    23   0.154E-03    0.127E-04
RMM:   9    -0.737029255489E+02   -0.32750E-06    0.00000E+00    14   0.108E-03
  44 F= -.73788176E+02 E0= -.73788176E+02  d E =-.774539E-03
 trial-energy change:   -0.000775  1 .order   -0.000762   -0.000852   -0.000672
 step:   0.2862(harm=  0.4939)  dis= 0.00690  next Energy=   -73.788827 (dE=-0.143E-02)
 bond charge predicted
       N       E                     dE             d eps       ncg     rms          rms(c)
DAV:   1    -0.737031734415E+02   -0.24822E-03   -0.10477E-01    42   0.224E+00    0.768E-02
RMM:   2    -0.737038321786E+02   -0.65874E-03   -0.13018E-03    42   0.233E-01    0.505E-02
RMM:   3    -0.737032509618E+02    0.58122E-03   -0.10315E-04    42   0.572E-02    0.152E-02
RMM:   4    -0.737038317158E+02   -0.58075E-03   -0.10367E-05    42   0.178E-02    0.476E-03
RMM:   5    -0.737032517305E+02    0.57999E-03   -0.17263E-06    28   0.713E-03    0.132E-03
RMM:   6    -0.737032520584E+02   -0.32792E-06   -0.35077E-07    28   0.378E-03
  45 F= -.73788492E+02 E0= -.73788685E+02  d E =-.109099E-02
 curvature:  -1.82 expect dE=-0.658E-02 dE for cont linesearch -0.250E-03
 ZBRENT: increasing intervall
 opt :   0.6499  next Energy=   -73.788623 (dE=-0.122E-02)
 bond charge predicted
       N       E                     dE             d eps       ncg     rms          rms(c)
DAV:   1    -0.737030898759E+02    0.16185E-03   -0.41916E-01    42   0.447E+00    0.153E-01
RMM:   2    -0.737034135246E+02   -0.32365E-03   -0.52118E-03    42   0.465E-01    0.101E-01
RMM:   3    -0.737033993000E+02    0.14225E-04   -0.41043E-04    42   0.114E-01    0.301E-02
RMM:   4    -0.737034043258E+02   -0.50258E-05   -0.41479E-05    43   0.355E-02    0.943E-03
RMM:   5    -0.737034049226E+02   -0.59682E-06   -0.82870E-06    42   0.142E-02
  46 F= -.73788621E+02 E0= -.73788814E+02  d E =-.121982E-02
 curvature:  -0.95 expect dE=-0.106E-01 dE for cont linesearch -0.818E-04
 ZBRENT: bracketing found
 ZBRENT: interpolating
 opt :   0.4894  next Energy=   -73.788837 (dE=-0.144E-02)
 bond charge predicted
       N       E                     dE             d eps       ncg     rms          rms(c)
DAV:   1    -0.737041269651E+02   -0.72264E-03   -0.81640E-02    42   0.197E+00    0.677E-02
RMM:   2    -0.737041896638E+02   -0.62699E-04   -0.99941E-04    42   0.204E-01    0.444E-02
RMM:   3    -0.737036113641E+02    0.57830E-03   -0.76029E-05    42   0.493E-02    0.136E-02
RMM:   4    -0.737036139730E+02   -0.26089E-05   -0.78594E-06    41   0.155E-02    0.402E-03
RMM:   5    -0.737036150584E+02   -0.10854E-05   -0.11571E-06    28   0.592E-03    0.117E-03
RMM:   6    -0.737036156113E+02   -0.55294E-06   -0.27047E-07    28   0.320E-03
  47 F= -.73788843E+02 E0= -.73789036E+02  d E =-.144176E-02
 curvature:  -2.51 expect dE=-0.150E-01 dE for cont linesearch -0.224E-07
 trial: gam= 0.68324 g(F)=  0.597E-02 g(S)=  0.000E+00 ort = 0.274E-04 (trialstep = 0.181E+00)
 search vector abs. value=  0.452E-01
 bond charge predicted
       N       E                     dE             d eps       ncg     rms          rms(c)
DAV:   1    -0.737049691142E+02   -0.13541E-02   -0.55496E-02    42   0.164E+00    0.598E-02
RMM:   2    -0.737050104149E+02   -0.41301E-04   -0.81536E-04    42   0.184E-01    0.387E-02
RMM:   3    -0.737050072811E+02    0.31338E-05   -0.71207E-05    44   0.474E-02    0.112E-02
RMM:   4    -0.737050075637E+02   -0.28264E-06   -0.55567E-06    40   0.134E-02
  48 F= -.73790238E+02 E0= -.73790238E+02  d E =-.139530E-02
 trial-energy change:   -0.001395  1 .order   -0.000816   -0.001086   -0.000547
 step:   0.2037(harm=  0.3652)  dis= 0.00283  next Energy=   -73.790273 (dE=-0.143E-02)
 bond charge predicted
       N       E                     dE             d eps       ncg     rms          rms(c)
DAV:   1    -0.737050695396E+02   -0.62258E-04   -0.83964E-04    52   0.201E-01    0.746E-03
RMM:   2    -0.737050703868E+02   -0.84725E-06   -0.13812E-05    42   0.238E-02    0.491E-03
RMM:   3    -0.737050705157E+02   -0.12886E-06   -0.82435E-07    28   0.584E-03
  49 F= -.73790302E+02 E0= -.73790302E+02  d E =-.145862E-02
 curvature:  -0.31 expect dE=-0.721E-03 dE for cont linesearch -0.488E-04
 ZBRENT: increasing intervall
 opt :   0.2484  next Energy=   -73.790403 (dE=-0.156E-02)
 bond charge predicted
       N       E                     dE             d eps       ncg     rms          rms(c)
DAV:   1    -0.737051695972E+02   -0.99210E-04   -0.33552E-03    52   0.402E-01    0.148E-02
RMM:   2    -0.737051720932E+02   -0.24960E-05   -0.49440E-05    42   0.454E-02    0.959E-03
RMM:   3    -0.737051720029E+02    0.90234E-07   -0.38688E-06    34   0.116E-02
  50 F= -.73790404E+02 E0= -.73790404E+02  d E =-.156083E-02
 curvature:  -0.66 expect dE=-0.150E-02 dE for cont linesearch -0.537E-04
 ZBRENT: increasing intervall
 opt :   0.3377  next Energy=   -73.790511 (dE=-0.167E-02)
 bond charge predicted
       N       E                     dE             d eps       ncg     rms          rms(c)
DAV:   1    -0.737052669637E+02   -0.94871E-04   -0.13428E-02    42   0.805E-01    0.297E-02
RMM:   2    -0.737052768795E+02   -0.99159E-05   -0.19868E-04    42   0.909E-02    0.192E-02
RMM:   3    -0.737052763155E+02    0.56400E-06   -0.17257E-05    44   0.233E-02    0.557E-03
RMM:   4    -0.737052764644E+02   -0.14890E-06   -0.11342E-06    28   0.658E-03
  51 F= -.73790510E+02 E0= -.73790510E+02  d E =-.166665E-02
 curvature:  -1.31 expect dE=-0.411E-02 dE for cont linesearch -0.630E-05
 trial: gam= 0.45159 g(F)=  0.314E-02 g(S)=  0.000E+00 ort = 0.467E-03 (trialstep = 0.213E+00)
 search vector abs. value=  0.128E-01
 bond charge predicted
       N       E                     dE             d eps       ncg     rms          rms(c)
DAV:   1    -0.737058670866E+02   -0.59077E-03   -0.17626E-02    42   0.924E-01    0.354E-02
RMM:   2    -0.737058795276E+02   -0.12441E-04   -0.25389E-04    42   0.104E-01    0.229E-02
RMM:   3    -0.737058798450E+02   -0.31737E-06   -0.24388E-05    43   0.262E-02    0.709E-03
RMM:   4    -0.737058798659E+02   -0.20909E-07   -0.16386E-06    28   0.805E-03
  52 F= -.73791118E+02 E0= -.73791118E+02  d E =-.608547E-03
 trial-energy change:   -0.000609  1 .order   -0.000609   -0.000712   -0.000505
 step:   0.7295(harm=  0.7295)  dis= 0.00546  next Energy=   -73.791732 (dE=-0.122E-02)
 bond charge predicted
       N       E                     dE             d eps       ncg     rms          rms(c)
DAV:   1    -0.737058268679E+02    0.52977E-04   -0.10420E-01    42   0.225E+00    0.861E-02
RMM:   2    -0.737064836651E+02   -0.65680E-03   -0.15096E-03    42   0.253E-01    0.557E-02
RMM:   3    -0.737064818186E+02    0.18465E-05   -0.14143E-04    43   0.631E-02    0.175E-02
RMM:   4    -0.737064810519E+02    0.76668E-06   -0.11855E-05    42   0.196E-02    0.535E-03
RMM:   5    -0.737064809764E+02    0.75509E-07   -0.16372E-06    28   0.714E-03
  53 F= -.73791731E+02 E0= -.73791731E+02  d E =-.122158E-02
 curvature:  -1.39 expect dE=-0.622E-02 dE for cont linesearch -0.153E-08
 trial: gam= 1.55640 g(F)=  0.447E-02 g(S)=  0.000E+00 ort = 0.375E-05 (trialstep = 0.114E+00)
 search vector abs. value=  0.354E-01
 bond charge predicted
       N       E                     dE             d eps       ncg     rms          rms(c)
DAV:   1    -0.737069451121E+02   -0.46406E-03   -0.14812E-02    52   0.836E-01    0.320E-02
RMM:   2    -0.737069535115E+02   -0.83994E-05   -0.18598E-04    42   0.901E-02    0.203E-02
RMM:   3    -0.737069541714E+02   -0.65983E-06   -0.23140E-05    42   0.244E-02    0.573E-03
RMM:   4    -0.737069547063E+02   -0.53491E-06   -0.12468E-06    28   0.703E-03
  54 F= -.73792210E+02 E0= -.73792210E+02  d E =-.478836E-03
 ZBRENT: can't locate minimum, use default step
 trial-energy change:   -0.000479  1 .order   -0.000477   -0.000510   -0.000443
 step:   0.4558(harm=  0.8659)  dis= 0.00476  next Energy=   -73.793669 (dE=-0.194E-02)
 bond charge predicted
       N       E                     dE             d eps       ncg     rms          rms(c)
DAV:   1    -0.737073117826E+02   -0.35761E-03   -0.13318E-01    42   0.251E+00    0.955E-02
RMM:   2    -0.737073870463E+02   -0.75264E-04   -0.16532E-03    42   0.269E-01    0.608E-02
RMM:   3    -0.737073849103E+02    0.21360E-05   -0.19271E-04    42   0.711E-02    0.170E-02
RMM:   4    -0.737073854992E+02   -0.58894E-06   -0.13834E-05    43   0.208E-02    0.652E-03
RMM:   5    -0.737073854089E+02    0.90368E-07   -0.41998E-06    38   0.942E-03
  55 F= -.73792655E+02 E0= -.73792849E+02  d E =-.924122E-03
 curvature:  -2.41 expect dE=-0.813E-02 dE for cont linesearch -0.297E-03
 ZBRENT: increasing intervall
 opt :   1.1396  next Energy=   -73.792856 (dE=-0.112E-02)
 bond charge predicted
       N       E                     dE             d eps       ncg     rms          rms(c)
DAV:   1    -0.737073029121E+02    0.82587E-04   -0.53253E-01    42   0.501E+00    0.191E-01
RMM:   2    -0.737076118665E+02   -0.30895E-03   -0.65850E-03    42   0.536E-01    0.121E-01
RMM:   3    -0.737075879872E+02    0.23879E-04   -0.78290E-04    42   0.143E-01    0.339E-02
RMM:   4    -0.737075888112E+02   -0.82407E-06   -0.55131E-05    43   0.416E-02    0.132E-02
RMM:   5    -0.737075874907E+02    0.13206E-05   -0.18022E-05    42   0.192E-02    0.460E-03
RMM:   6    -0.737075886136E+02   -0.11229E-05   -0.31245E-06    31   0.849E-03    0.182E-03
RMM:   7    -0.737075899489E+02   -0.13353E-05   -0.53876E-07    28   0.446E-03    0.568E-04
RMM:   8    -0.737075910445E+02   -0.10956E-05   -0.24949E-07    28   0.272E-03    0.334E-04
RMM:   9    -0.737075922803E+02   -0.12358E-05   -0.12938E-07    24   0.184E-03    0.167E-04
RMM:  10    -0.737075927289E+02   -0.44868E-06   -0.26826E-08    17   0.135E-03
  56 F= -.73792888E+02 E0= -.73793082E+02  d E =-.115717E-02
 curvature:  -1.63 expect dE=-0.216E-01 dE for cont linesearch -0.931E-04
 ZBRENT: bracketing found
 ZBRENT: interpolating
 opt :   0.8626  next Energy=   -73.793086 (dE=-0.135E-02)
 bond charge predicted
       N       E                     dE             d eps       ncg     rms          rms(c)
DAV:   1    -0.737077513443E+02   -0.15906E-03   -0.87360E-02    52   0.203E+00    0.772E-02
RMM:   2    -0.737077994165E+02   -0.48072E-04   -0.10763E-03    42   0.217E-01    0.492E-02
RMM:   3    -0.737077999186E+02   -0.50209E-06   -0.12766E-04    42   0.578E-02    0.135E-02
RMM:   4    -0.737078001180E+02   -0.19944E-06   -0.88563E-06    42   0.168E-02
  57 F= -.73793086E+02 E0= -.73793279E+02  d E =-.135470E-02
 curvature:  -3.45 expect dE=-0.258E-01 dE for cont linesearch -0.932E-07
 trial: gam= 1.54760 g(F)=  0.748E-02 g(S)=  0.000E+00 ort = 0.310E-04 (trialstep = 0.101E+00)
 search vector abs. value=  0.925E-01
 bond charge predicted
       N       E                     dE             d eps       ncg     rms          rms(c)
DAV:   1    -0.737084528280E+02   -0.65291E-03   -0.30969E-02    52   0.120E+00    0.455E-02
RMM:   2    -0.737084713670E+02   -0.18539E-04   -0.38968E-04    42   0.128E-01    0.290E-02
RMM:   3    -0.737084707216E+02    0.64539E-06   -0.36158E-05    42   0.324E-02    0.761E-03
RMM:   4    -0.737084710930E+02   -0.37137E-06   -0.27856E-06    32   0.983E-03
  58 F= -.73793769E+02 E0= -.73793963E+02  d E =-.683449E-03
 ZBRENT: can't locate minimum, use default step
 trial-energy change:   -0.000683  1 .order   -0.000684   -0.000761   -0.000607
 step:   0.4043(harm=  0.5013)  dis= 0.00674  next Energy=   -73.794972 (dE=-0.189E-02)
 bond charge predicted
       N       E                     dE             d eps       ncg     rms          rms(c)
DAV:   1    -0.737099622299E+02   -0.14915E-02   -0.27796E-01    47   0.361E+00    0.137E-01
RMM:   2    -0.737101353511E+02   -0.17312E-03   -0.34174E-03    42   0.379E-01    0.874E-02
RMM:   3    -0.737095430675E+02    0.59228E-03   -0.33317E-04    42   0.982E-02    0.220E-02
RMM:   4    -0.737095463329E+02   -0.32654E-05   -0.26078E-05    43   0.287E-02    0.763E-03
RMM:   5    -0.737095470927E+02   -0.75982E-06   -0.10510E-05    42   0.151E-02    0.249E-03
RMM:   6    -0.737101275596E+02   -0.58047E-03   -0.38209E-07    28   0.382E-03    0.149E-03
RMM:   7    -0.737101289727E+02   -0.14131E-05   -0.47911E-07    28   0.340E-03    0.484E-04
RMM:   8    -0.737101296077E+02   -0.63502E-06   -0.89018E-08    23   0.171E-03
  59 F= -.73795463E+02 E0= -.73795463E+02  d E =-.237716E-02
 curvature:  -2.90 expect dE=-0.168E-01 dE for cont linesearch -0.592E-04
 ZBRENT: extrapolating
 opt :   0.4942  next Energy=   -73.795525 (dE=-0.244E-02)
 bond charge predicted
       N       E                     dE             d eps       ncg     rms          rms(c)
DAV:   1    -0.737101678573E+02   -0.38885E-04   -0.24436E-02    52   0.107E+00    0.404E-02
RMM:   2    -0.737101817942E+02   -0.13937E-04   -0.29921E-04    42   0.112E-01    0.259E-02
RMM:   3    -0.737101816345E+02    0.15967E-06   -0.29360E-05    42   0.292E-02    0.637E-03
RMM:   4    -0.737101820355E+02   -0.40105E-06   -0.17585E-06    28   0.843E-03
  60 F= -.73795525E+02 E0= -.73795525E+02  d E =-.243937E-02
 curvature:  -3.03 expect dE=-0.251E-01 dE for cont linesearch -0.586E-08
 trial: gam= 1.11249 g(F)=  0.828E-02 g(S)=  0.000E+00 ort = 0.134E-04 (trialstep = 0.135E+00)
 search vector abs. value=  0.123E+00
 bond charge predicted
       N       E                     dE             d eps       ncg     rms          rms(c)
DAV:   1    -0.737111236926E+02   -0.94206E-03   -0.66991E-02    42   0.177E+00    0.684E-02
RMM:   2    -0.737111635025E+02   -0.39810E-04   -0.79279E-04    42   0.181E-01    0.441E-02
RMM:   3    -0.737111646107E+02   -0.11082E-05   -0.58101E-05    42   0.432E-02    0.999E-03
RMM:   4    -0.737111653895E+02   -0.77887E-06   -0.54196E-06    38   0.131E-02
  61 F= -.73796516E+02 E0= -.73796516E+02  d E =-.990390E-03
 ZBRENT: can't locate minimum, use default step
 trial-energy change:   -0.000990  1 .order   -0.000992   -0.001123   -0.000861
 step:   0.5415(harm=  0.5798)  dis= 0.01087  next Energy=   -73.797931 (dE=-0.241E-02)
 bond charge predicted
       N       E                     dE             d eps       ncg     rms          rms(c)
DAV:   1    -0.737121762114E+02   -0.10116E-02   -0.60294E-01    42   0.532E+00    0.205E-01
RMM:   2    -0.737125669741E+02   -0.39076E-03   -0.71730E-03    42   0.544E-01    0.132E-01
RMM:   3    -0.737119654410E+02    0.60153E-03   -0.52205E-04    42   0.130E-01    0.307E-02
RMM:   4    -0.737119716772E+02   -0.62362E-05   -0.51924E-05    42   0.399E-02    0.749E-03
RMM:   5    -0.737119722017E+02   -0.52451E-06   -0.10641E-05    43   0.156E-02    0.328E-03
RMM:   6    -0.737125532745E+02   -0.58107E-03   -0.77485E-07    28   0.524E-03    0.146E-03
RMM:   7    -0.737125548199E+02   -0.15454E-05   -0.36884E-07    28   0.351E-03    0.534E-04
RMM:   8    -0.737125562079E+02   -0.13880E-05   -0.14547E-07    26   0.212E-03    0.246E-04
RMM:   9    -0.737125577765E+02   -0.15686E-05   -0.14722E-07    25   0.184E-03    0.238E-04
RMM:  10    -0.737125587438E+02   -0.96729E-06   -0.49446E-08    18   0.129E-03
  62 F= -.73797926E+02 E0= -.73797926E+02  d E =-.240073E-02
 curvature:  -4.26 expect dE=-0.152E-01 dE for cont linesearch -0.117E-04
 trial: gam= 0.31794 g(F)=  0.356E-02 g(S)=  0.000E+00 ort = 0.580E-03 (trialstep = 0.217E+00)
 search vector abs. value=  0.163E-01
 bond charge predicted
       N       E                     dE             d eps       ncg     rms          rms(c)
DAV:   1    -0.737126468728E+02   -0.89096E-04   -0.28160E-02    52   0.116E+00    0.433E-02
RMM:   2    -0.737132455925E+02   -0.59872E-03   -0.42450E-04    42   0.133E-01    0.289E-02
RMM:   3    -0.737132424796E+02    0.31129E-05   -0.72766E-05    43   0.421E-02    0.823E-03
RMM:   4    -0.737132420873E+02    0.39230E-06   -0.21754E-06    29   0.926E-03
  63 F= -.73798593E+02 E0= -.73798593E+02  d E =-.667300E-03
 trial-energy change:   -0.000667  1 .order   -0.000665   -0.000811   -0.000519
 step:   0.6018(harm=  0.6018)  dis= 0.00595  next Energy=   -73.799052 (dE=-0.113E-02)
 bond charge predicted
       N       E                     dE             d eps       ncg     rms          rms(c)
DAV:   1    -0.737131101176E+02    0.13236E-03   -0.89239E-02    42   0.206E+00    0.772E-02
RMM:   2    -0.737137505769E+02   -0.64046E-03   -0.13777E-03    42   0.240E-01    0.517E-02
RMM:   3    -0.737137385454E+02    0.12032E-04   -0.24226E-04    43   0.763E-02    0.151E-02
RMM:   4    -0.737137373121E+02    0.12333E-05   -0.86732E-06    43   0.168E-02    0.821E-03
RMM:   5    -0.737137367097E+02    0.60237E-06   -0.18460E-05    42   0.173E-02    0.287E-03
RMM:   6    -0.737137365053E+02    0.20440E-06   -0.43683E-07    28   0.363E-03
  64 F= -.73799059E+02 E0= -.73799059E+02  d E =-.113292E-02
 curvature:  -1.31 expect dE=-0.552E-02 dE for cont linesearch -0.596E-07
 trial: gam= 1.24821 g(F)=  0.421E-02 g(S)=  0.000E+00 ort = 0.272E-04 (trialstep = 0.161E+00)
 search vector abs. value=  0.297E-01
 bond charge predicted
       N       E                     dE             d eps       ncg     rms          rms(c)
DAV:   1    -0.737142725073E+02   -0.53580E-03   -0.30582E-02    52   0.120E+00    0.443E-02
RMM:   2    -0.737142904601E+02   -0.17953E-04   -0.40911E-04    42   0.130E-01    0.290E-02
RMM:   3    -0.737142882575E+02    0.22026E-05   -0.48548E-05    42   0.368E-02    0.732E-03
RMM:   4    -0.737142884618E+02   -0.20423E-06   -0.26493E-06    32   0.971E-03
  65 F= -.73799598E+02 E0= -.73799598E+02  d E =-.539434E-03
 trial-energy change:   -0.000539  1 .order   -0.000539   -0.000684   -0.000394
 step:   0.3801(harm=  0.3801)  dis= 0.00511  next Energy=   -73.799865 (dE=-0.806E-03)
 bond charge predicted
       N       E                     dE             d eps       ncg     rms          rms(c)
DAV:   1    -0.737139636999E+02    0.32456E-03   -0.56250E-02    42   0.163E+00    0.603E-02
RMM:   2    -0.737145762681E+02   -0.61257E-03   -0.76185E-04    42   0.177E-01    0.395E-02
RMM:   3    -0.737145716312E+02    0.46369E-05   -0.92092E-05    42   0.503E-02    0.102E-02
RMM:   4    -0.737145718092E+02   -0.17801E-06   -0.52768E-06    37   0.133E-02
  66 F= -.73799864E+02 E0= -.73799864E+02  d E =-.805453E-03
 curvature:  -1.33 expect dE=-0.253E-02 dE for cont linesearch -0.544E-08
 trial: gam= 0.41636 g(F)=  0.190E-02 g(S)=  0.000E+00 ort =-0.110E-04 (trialstep = 0.205E+00)
 search vector abs. value=  0.704E-02
 bond charge predicted
       N       E                     dE             d eps       ncg     rms          rms(c)
DAV:   1    -0.737143053142E+02    0.26632E-03   -0.13219E-02    52   0.806E-01    0.269E-02
RMM:   2    -0.737143154867E+02   -0.10173E-04   -0.17525E-04    42   0.869E-02    0.181E-02
RMM:   3    -0.737143152069E+02    0.27987E-06   -0.17734E-05    43   0.218E-02    0.608E-03
RMM:   4    -0.737143157722E+02   -0.56530E-06   -0.13459E-06    28   0.716E-03
  67 F= -.73799607E+02 E0= -.73799800E+02  d E =0.257144E-03
 trial-energy change:    0.000257  1 .order   -0.000323   -0.000388   -0.000258
 step:   0.6106(harm=  0.6106)  dis= 0.00398  next Energy=   -73.800442 (dE=-0.577E-03)
 bond charge predicted
       N       E                     dE             d eps       ncg     rms          rms(c)
DAV:   1    -0.737145351260E+02   -0.21992E-03   -0.51759E-02    42   0.159E+00    0.531E-02
RMM:   2    -0.737145750489E+02   -0.39923E-04   -0.68576E-04    42   0.172E-01    0.357E-02
RMM:   3    -0.737145715008E+02    0.35482E-05   -0.68555E-05    43   0.429E-02    0.121E-02
RMM:   4    -0.737145723656E+02   -0.86482E-06   -0.64108E-06    40   0.141E-02
  68 F= -.73799861E+02 E0= -.73800055E+02  d E =0.285747E-05
 curvature:  -1.14 expect dE=-0.184E-02 dE for cont linesearch -0.295E-08
 trial: gam= 0.84600 g(F)=  0.162E-02 g(S)=  0.000E+00 ort = 0.427E-05 (trialstep = 0.286E+00)
 search vector abs. value=  0.667E-02
 bond charge predicted
       N       E                     dE             d eps       ncg     rms          rms(c)
DAV:   1    -0.737154509850E+02   -0.87948E-03   -0.24276E-02    52   0.110E+00    0.384E-02
RMM:   2    -0.737154642884E+02   -0.13303E-04   -0.30086E-04    42   0.113E-01    0.249E-02
RMM:   3    -0.737154630943E+02    0.11941E-05   -0.36853E-05    42   0.314E-02    0.659E-03
RMM:   4    -0.737154635695E+02   -0.47527E-06   -0.16496E-06    28   0.817E-03
  69 F= -.73800763E+02 E0= -.73800763E+02  d E =-.901294E-03
 trial-energy change:   -0.000901  1 .order   -0.000321   -0.000466   -0.000176
 step:   0.2990(harm=  0.4602)  dis= 0.00201  next Energy=   -73.800767 (dE=-0.905E-03)
 bond charge predicted
       N       E                     dE             d eps       ncg     rms          rms(c)
DAV:   1    -0.737154712618E+02   -0.81676E-05   -0.50534E-05    55   0.503E-02    0.203E-03
[...]
RMM:   2    -0.737165030099E+02   -0.21625E-06   -0.20674E-06    29   0.984E-03
  85 F= -.73801835E+02 E0= -.73801835E+02  d E =-.748364E-04
 curvature:  -0.92 expect dE=-0.227E-03 dE for cont linesearch -0.134E-08
 trial: gam= 0.70795 g(F)=  0.247E-03 g(S)=  0.000E+00 ort =-0.148E-05 (trialstep = 0.386E+00)
 search vector abs. value=  0.998E-03
 bond charge predicted
       N       E                     dE             d eps       ncg     rms          rms(c)
DAV:   1    -0.737165475425E+02   -0.44749E-04   -0.62762E-03    42   0.554E-01    0.204E-02
RMM:   2    -0.737165530742E+02   -0.55317E-05   -0.10809E-04    43   0.662E-02    0.136E-02
RMM:   3    -0.737165524705E+02    0.60370E-06   -0.11560E-05    42   0.182E-02    0.440E-03
RMM:   4    -0.737165526724E+02   -0.20192E-06   -0.78829E-07    28   0.564E-03
  86 F= -.73801882E+02 E0= -.73801882E+02  d E =-.469189E-04
 trial-energy change:   -0.000047  1 .order   -0.000046   -0.000095    0.000004
 step:   0.3711(harm=  0.3711)  dis= 0.00091  next Energy=   -73.801880 (dE=-0.456E-04)
 bond charge predicted
       N       E                     dE             d eps       ncg     rms          rms(c)
DAV:   1    -0.737165527639E+02   -0.29337E-06   -0.94658E-06    55   0.214E-02    0.110E-03
RMM:   2    -0.737165528169E+02   -0.53049E-07   -0.11819E-07    27   0.230E-03
  87 F= -.73801882E+02 E0= -.73801882E+02  d E =-.471687E-04
 curvature:  -0.75 expect dE=-0.935E-04 dE for cont linesearch -0.199E-08
 trial: gam= 0.50715 g(F)=  0.124E-03 g(S)=  0.000E+00 ort =-0.163E-05 (trialstep = 0.383E+00)
 search vector abs. value=  0.379E-03
 bond charge predicted
       N       E                     dE             d eps       ncg     rms          rms(c)
DAV:   1    -0.737165851023E+02   -0.32338E-04   -0.24317E-03    47   0.339E-01    0.121E-02
RMM:   2    -0.737165866534E+02   -0.15511E-05   -0.35353E-05    42   0.385E-02    0.794E-03
RMM:   3    -0.737165865657E+02    0.87725E-07   -0.29027E-06    31   0.962E-03
  88 F= -.73801915E+02 E0= -.73801915E+02  d E =-.332542E-04
 trial-energy change:   -0.000033  1 .order   -0.000033   -0.000047   -0.000019
 step:   0.6436(harm=  0.6436)  dis= 0.00094  next Energy=   -73.801921 (dE=-0.397E-04)
 bond charge predicted
       N       E                     dE             d eps       ncg     rms          rms(c)
DAV:   1    -0.737165927237E+02   -0.60703E-05   -0.11162E-03    47   0.230E-01    0.875E-03
RMM:   2    -0.737165934415E+02   -0.71777E-06   -0.16598E-05    42   0.264E-02    0.577E-03
RMM:   3    -0.737165934556E+02   -0.14107E-07   -0.12753E-06    28   0.666E-03
  89 F= -.73801922E+02 E0= -.73801922E+02  d E =-.397885E-04
 curvature:  -0.99 expect dE=-0.117E-03 dE for cont linesearch -0.795E-09
 trial: gam= 0.93396 g(F)=  0.118E-03 g(S)=  0.000E+00 ort =-0.552E-06 (trialstep = 0.368E+00)
 search vector abs. value=  0.448E-03
 bond charge predicted
       N       E                     dE             d eps       ncg     rms          rms(c)
DAV:   1    -0.737166186121E+02   -0.25171E-04   -0.23876E-03    47   0.342E-01    0.119E-02
RMM:   2    -0.737166201558E+02   -0.15437E-05   -0.32567E-05    42   0.362E-02    0.795E-03
RMM:   3    -0.737166200497E+02    0.10609E-06   -0.33634E-06    34   0.105E-02
  90 F= -.73801952E+02 E0= -.73801952E+02  d E =-.302939E-04
 trial-energy change:   -0.000030  1 .order   -0.000030   -0.000043   -0.000017
 step:   0.6133(harm=  0.6133)  dis= 0.00095  next Energy=   -73.801958 (dE=-0.361E-04)
 bond charge predicted
       N       E                     dE             d eps       ncg     rms          rms(c)
DAV:   1    -0.737166226780E+02   -0.25223E-05   -0.10562E-03    52   0.227E-01    0.791E-03
RMM:   2    -0.737166234547E+02   -0.77669E-06   -0.15088E-05    41   0.246E-02    0.535E-03
RMM:   3    -0.737166233797E+02    0.75003E-07   -0.11876E-06    28   0.682E-03
  91 F= -.73801958E+02 E0= -.73801958E+02  d E =-.360696E-04
 curvature:  -1.17 expect dE=-0.196E-03 dE for cont linesearch -0.175E-08
 trial: gam= 1.41414 g(F)=  0.168E-03 g(S)=  0.000E+00 ort = 0.820E-06 (trialstep = 0.175E+00)
 search vector abs. value=  0.107E-02
 bond charge predicted
       N       E                     dE             d eps       ncg     rms          rms(c)
DAV:   1    -0.737166444146E+02   -0.20960E-04   -0.13084E-03    52   0.252E-01    0.899E-03
RMM:   2    -0.737166453134E+02   -0.89878E-06   -0.19180E-05    42   0.275E-02    0.586E-03
RMM:   3    -0.737166452623E+02    0.51084E-07   -0.14796E-06    28   0.737E-03
  92 F= -.73801981E+02 E0= -.73801981E+02  d E =-.236464E-04
 trial-energy change:   -0.000024  1 .order   -0.000023   -0.000030   -0.000017
 step:   0.4171(harm=  0.4171)  dis= 0.00102  next Energy=   -73.801993 (dE=-0.353E-04)
 bond charge predicted
       N       E                     dE             d eps       ncg     rms          rms(c)
DAV:   1    -0.737166527591E+02   -0.74456E-05   -0.24797E-03    52   0.346E-01    0.124E-02
RMM:   2    -0.737166544665E+02   -0.17074E-05   -0.36283E-05    42   0.378E-02    0.811E-03
RMM:   3    -0.737166543881E+02    0.78363E-07   -0.29264E-06    30   0.998E-03
  93 F= -.73801993E+02 E0= -.73801993E+02  d E =-.351865E-04
 curvature:  -1.31 expect dE=-0.924E-04 dE for cont linesearch -0.835E-08
 trial: gam= 0.44574 g(F)=  0.704E-04 g(S)=  0.000E+00 ort =-0.260E-05 (trialstep = 0.224E+00)
 search vector abs. value=  0.280E-03
 bond charge predicted
       N       E                     dE             d eps       ncg     rms          rms(c)
DAV:   1    -0.737166681534E+02   -0.13687E-04   -0.68011E-04    52   0.181E-01    0.615E-03
RMM:   2    -0.737166687347E+02   -0.58133E-06   -0.95378E-06    42   0.202E-02
  94 F= -.73802005E+02 E0= -.73802005E+02  d E =-.125294E-04
 trial-energy change:   -0.000013  1 .order   -0.000012   -0.000015   -0.000009
 step:   0.5251(harm=  0.5251)  dis= 0.00058  next Energy=   -73.802011 (dE=-0.182E-04)
 bond charge predicted
       N       E                     dE             d eps       ncg     rms          rms(c)
DAV:   1    -0.737166769990E+02   -0.88456E-05   -0.12251E-03    52   0.244E-01    0.889E-03
RMM:   2    -0.737166778849E+02   -0.88590E-06   -0.16977E-05    42   0.268E-02    0.592E-03
RMM:   3    -0.737166779441E+02   -0.59244E-07   -0.15011E-06    28   0.729E-03
  95 F= -.73802012E+02 E0= -.73802012E+02  d E =-.192818E-04
 curvature:  -1.06 expect dE=-0.564E-04 dE for cont linesearch -0.351E-07
 trial: gam= 0.67814 g(F)=  0.531E-04 g(S)=  0.000E+00 ort = 0.304E-05 (trialstep = 0.284E+00)
 search vector abs. value=  0.186E-03
 bond charge predicted
       N       E                     dE             d eps       ncg     rms          rms(c)
DAV:   1    -0.737166917222E+02   -0.13837E-04   -0.71757E-04    52   0.184E-01    0.657E-03
RMM:   2    -0.737166921762E+02   -0.45406E-06   -0.10254E-05    41   0.206E-02    0.430E-03
RMM:   3    -0.737166921691E+02    0.71564E-08   -0.90636E-07    28   0.574E-03
  96 F= -.73802024E+02 E0= -.73802024E+02  d E =-.119565E-04
 trial-energy change:   -0.000012  1 .order   -0.000012   -0.000016   -0.000008
 step:   0.5909(harm=  0.5909)  dis= 0.00062  next Energy=   -73.802028 (dE=-0.163E-04)
 bond charge predicted
       N       E                     dE             d eps       ncg     rms          rms(c)
DAV:   1    -0.737166984085E+02   -0.62322E-05   -0.83758E-04    52   0.199E-01    0.710E-03
RMM:   2    -0.737166989409E+02   -0.53236E-06   -0.12000E-05    41   0.223E-02    0.467E-03
RMM:   3    -0.737166989260E+02    0.14835E-07   -0.10538E-06    28   0.620E-03
  97 F= -.73802028E+02 E0= -.73802028E+02  d E =-.162560E-04
 curvature:  -1.00 expect dE=-0.776E-04 dE for cont linesearch -0.999E-09
 trial: gam= 1.54720 g(F)=  0.779E-04 g(S)=  0.000E+00 ort =-0.432E-06 (trialstep = 0.123E+00)
 search vector abs. value=  0.522E-03
 bond charge predicted
       N       E                     dE             d eps       ncg     rms          rms(c)
DAV:   1    -0.737167086793E+02   -0.97384E-05   -0.34147E-04    52   0.127E-01    0.463E-03
RMM:   2    -0.737167088969E+02   -0.21765E-06   -0.43682E-06    36   0.138E-02
  98 F= -.73802037E+02 E0= -.73802037E+02  d E =-.834883E-05
 trial-energy change:   -0.000008  1 .order   -0.000008   -0.000010   -0.000007
 step:   0.4437(harm=  0.4437)  dis= 0.00077  next Energy=   -73.802046 (dE=-0.171E-04)
 bond charge predicted
       N       E                     dE             d eps       ncg     rms          rms(c)
DAV:   1    -0.737167216255E+02   -0.12946E-04   -0.22993E-03    42   0.330E-01    0.122E-02
RMM:   2    -0.737167228340E+02   -0.12086E-05   -0.30458E-05    42   0.354E-02    0.784E-03
RMM:   3    -0.737167229868E+02   -0.15277E-06   -0.38601E-06    35   0.107E-02
  99 F= -.73802047E+02 E0= -.73802047E+02  d E =-.182120E-04
 curvature:  -1.50 expect dE=-0.700E-04 dE for cont linesearch -0.170E-07
 trial: gam= 0.49514 g(F)=  0.467E-04 g(S)=  0.000E+00 ort = 0.243E-05 (trialstep = 0.187E+00)
 search vector abs. value=  0.177E-03
 bond charge predicted
       N       E                     dE             d eps       ncg     rms          rms(c)
DAV:   1    -0.737167312870E+02   -0.84529E-05   -0.20205E-04    47   0.983E-02    0.424E-03
RMM:   2    -0.737167314246E+02   -0.13761E-06   -0.31106E-06    31   0.117E-02
 100 F= -.73802054E+02 E0= -.73802054E+02  d E =-.780228E-05
 trial-energy change:   -0.000008  1 .order   -0.000008   -0.000009   -0.000006
 step:   0.6662(harm=  0.6662)  dis= 0.00050  next Energy=   -73.802063 (dE=-0.160E-04)
 bond charge predicted
       N       E                     dE             d eps       ncg     rms          rms(c)
DAV:   1    -0.737167412495E+02   -0.99626E-05   -0.13190E-03    52   0.251E-01    0.104E-02
RMM:   2    -0.737167420440E+02   -0.79447E-06   -0.20772E-05    42   0.291E-02    0.677E-03
RMM:   3    -0.737167420644E+02   -0.20361E-07   -0.24364E-06    29   0.889E-03
 101 F= -.73802063E+02 E0= -.73802063E+02  d E =-.168147E-04
 curvature:  -1.23 expect dE=-0.746E-04 dE for cont linesearch -0.228E-07
 trial: gam= 1.30809 g(F)=  0.606E-04 g(S)=  0.000E+00 ort = 0.181E-05 (trialstep = 0.136E+00)
 search vector abs. value=  0.368E-03
 bond charge predicted
       N       E                     dE             d eps       ncg     rms          rms(c)
DAV:   1    -0.737167491885E+02   -0.71445E-05   -0.26799E-04    52   0.113E-01    0.432E-03
RMM:   2    -0.737167492853E+02   -0.96715E-07   -0.40279E-06    35   0.130E-02
 102 F= -.73802071E+02 E0= -.73802071E+02  d E =-.752132E-05
 trial-energy change:   -0.000008  1 .order   -0.000007   -0.000009   -0.000006
 step:   0.5181(harm=  0.5181)  dis= 0.00057  next Energy=   -73.802080 (dE=-0.163E-04)
 bond charge predicted
       N       E                     dE             d eps       ncg     rms          rms(c)
DAV:   1    -0.737167562822E+02   -0.70936E-05   -0.20900E-03    52   0.315E-01    0.119E-02
RMM:   2    -0.737167573412E+02   -0.10590E-05   -0.31848E-05    42   0.356E-02    0.771E-03
RMM:   3    -0.737167570315E+02    0.30968E-06   -0.37279E-06    33   0.108E-02
 103 F= -.73802080E+02 E0= -.73802080E+02  d E =-.161039E-04
 curvature:  -1.51 expect dE=-0.125E-03 dE for cont linesearch -0.147E-09
 trial: gam= 1.41376 g(F)=  0.822E-04 g(S)=  0.000E+00 ort = 0.189E-06 (trialstep = 0.955E-01)
 search vector abs. value=  0.819E-03
 bond charge predicted
       N       E                     dE             d eps       ncg     rms          rms(c)
DAV:   1    -0.737167637780E+02   -0.64368E-05   -0.30784E-04    52   0.120E-01    0.439E-03
RMM:   2    -0.737167639845E+02   -0.20651E-06   -0.42060E-06    35   0.134E-02
 104 F= -.73802087E+02 E0= -.73802087E+02  d E =-.734188E-05
 ZBRENT: can't locate minimum, use default step
 trial-energy change:   -0.000007  1 .order   -0.000007   -0.000008   -0.000007
 step:   0.3822(harm=  0.6421)  dis= 0.00068  next Energy=   -73.802106 (dE=-0.265E-04)
 bond charge predicted
       N       E                     dE             d eps       ncg     rms          rms(c)
DAV:   1    -0.737167770139E+02   -0.13236E-04   -0.27719E-03    52   0.360E-01    0.130E-02
RMM:   2    -0.737167787472E+02   -0.17333E-05   -0.37303E-05    42   0.392E-02    0.845E-03
RMM:   3    -0.737167786482E+02    0.99042E-07   -0.34387E-06    33   0.107E-02
 105 F= -.73802103E+02 E0= -.73802103E+02  d E =-.231637E-04
 curvature:  -2.47 expect dE=-0.119E-03 dE for cont linesearch -0.507E-05
 ZBRENT: increasing intervall
 opt :   0.9555  next Energy=   -73.802109 (dE=-0.300E-04)
 bond charge predicted
       N       E                     dE             d eps       ncg     rms          rms(c)
DAV:   1    -0.737167724266E+02    0.63206E-05   -0.11140E-02    42   0.720E-01    0.249E-02
RMM:   2    -0.737167804192E+02   -0.79926E-05   -0.14973E-04    42   0.786E-02    0.163E-02
RMM:   3    -0.737167801299E+02    0.28932E-06   -0.13390E-05    42   0.206E-02    0.441E-03
RMM:   4    -0.737167802973E+02   -0.16742E-06   -0.97858E-07    28   0.607E-03
 106 F= -.73802107E+02 E0= -.73802107E+02  d E =-.270912E-04
 curvature:  -3.30 expect dE=-0.538E-03 dE for cont linesearch -0.237E-05
 ZBRENT: bracketing found
 ZBRENT: interpolating
 opt :   0.7426  next Energy=   -73.802109 (dE=-0.297E-04)
 bond charge predicted
       N       E                     dE             d eps       ncg     rms          rms(c)
DAV:   1    -0.737167829699E+02   -0.28400E-05   -0.15405E-03    52   0.268E-01    0.923E-03
RMM:   2    -0.737167840985E+02   -0.11286E-05   -0.19808E-05    42   0.288E-02    0.592E-03
RMM:   3    -0.737167842340E+02   -0.13548E-06   -0.16745E-06    28   0.768E-03
 107 F= -.73802110E+02 E0= -.73802110E+02  d E =-.301878E-04
 curvature:  -3.60 expect dE=-0.355E-03 dE for cont linesearch -0.597E-08
 trial: gam= 1.12716 g(F)=  0.986E-04 g(S)=  0.000E+00 ort =-0.117E-05 (trialstep = 0.162E+00)
 search vector abs. value=  0.114E-02
 bond charge predicted
       N       E                     dE             d eps       ncg     rms          rms(c)
DAV:   1    -0.737167978878E+02   -0.13789E-04   -0.10951E-03    52   0.226E-01    0.819E-03
RMM:   2    -0.737167985846E+02   -0.69679E-06   -0.14935E-05    42   0.246E-02    0.516E-03
RMM:   3    -0.737167986185E+02   -0.33846E-07   -0.12699E-06    28   0.677E-03
 108 F= -.73802123E+02 E0= -.73802123E+02  d E =-.135985E-04
 trial-energy change:   -0.000014  1 .order   -0.000013   -0.000016   -0.000011
 step:   0.5089(harm=  0.5089)  dis= 0.00119  next Energy=   -73.802134 (dE=-0.248E-04)
 bond charge predicted
       N       E                     dE             d eps       ncg     rms          rms(c)
DAV:   1    -0.737168083894E+02   -0.98048E-05   -0.49622E-03    42   0.481E-01    0.178E-02
RMM:   2    -0.737168116847E+02   -0.32953E-05   -0.69253E-05    42   0.527E-02    0.114E-02
RMM:   3    -0.737168118792E+02   -0.19446E-06   -0.67346E-06    40   0.143E-02
 109 F= -.73802135E+02 E0= -.73802135E+02  d E =-.251607E-04
 curvature:  -2.97 expect dE=-0.255E-03 dE for cont linesearch -0.276E-10
 trial: gam= 0.84163 g(F)=  0.857E-04 g(S)=  0.000E+00 ort =-0.103E-06 (trialstep = 0.231E+00)
 search vector abs. value=  0.890E-03
 bond charge predicted
       N       E                     dE             d eps       ncg     rms          rms(c)
DAV:   1    -0.737168259525E+02   -0.14268E-04   -0.18509E-03    52   0.293E-01    0.111E-02
RMM:   2    -0.737168274822E+02   -0.15296E-05   -0.30429E-05    42   0.345E-02    0.745E-03
RMM:   3    -0.737168273183E+02    0.16390E-06   -0.31637E-06    33   0.102E-02
 110 F= -.73802148E+02 E0= -.73802148E+02  d E =-.129158E-04
 trial-energy change:   -0.000013  1 .order   -0.000013   -0.000020   -0.000006
 step:   0.3400(harm=  0.3400)  dis= 0.00068  next Energy=   -73.802149 (dE=-0.146E-04)
 bond charge predicted
       N       E                     dE             d eps       ncg     rms          rms(c)
DAV:   1    -0.737168295643E+02   -0.20821E-05   -0.40449E-04    52   0.137E-01    0.517E-03
RMM:   2    -0.737168299649E+02   -0.40058E-06   -0.69503E-06    40   0.164E-02
 111 F= -.73802149E+02 E0= -.73802149E+02  d E =-.143764E-04
 curvature:  -1.77 expect dE=-0.802E-04 dE for cont linesearch -0.165E-07
 trial: gam= 0.54927 g(F)=  0.454E-04 g(S)=  0.000E+00 ort =-0.288E-05 (trialstep = 0.253E+00)
 search vector abs. value=  0.311E-03
 bond charge predicted
       N       E                     dE             d eps       ncg     rms          rms(c)
DAV:   1    -0.737168415336E+02   -0.11969E-04   -0.91839E-04    47   0.205E-01    0.754E-03
RMM:   2    -0.737168421655E+02   -0.63189E-06   -0.12498E-05    42   0.225E-02    0.495E-03
RMM:   3    -0.737168422541E+02   -0.88643E-07   -0.12179E-06    28   0.651E-03
 112 F= -.73802159E+02 E0= -.73802159E+02  d E =-.100994E-04
 ZBRENT: can't locate minimum, use default step
 trial-energy change:   -0.000010  1 .order   -0.000010   -0.000011   -0.000008
 step:   1.0127(harm=  1.0478)  dis= 0.00110  next Energy=   -73.802172 (dE=-0.229E-04)
 bond charge predicted
       N       E                     dE             d eps       ncg     rms          rms(c)
DAV:   1    -0.737168539028E+02   -0.11737E-04   -0.83602E-03    42   0.617E-01    0.208E-02
RMM:   2    -0.737168595935E+02   -0.56907E-05   -0.10958E-04    42   0.666E-02    0.138E-02
RMM:   3    -0.737168594837E+02    0.10988E-06   -0.11202E-05    42   0.185E-02    0.290E-03
RMM:   4    -0.737168595567E+02   -0.73082E-07   -0.55771E-07    28   0.451E-03
 113 F= -.73802170E+02 E0= -.73802170E+02  d E =-.208091E-04
 curvature:  -3.71 expect dE=-0.307E-03 dE for cont linesearch -0.280E-06
 trial: gam= 1.93412 g(F)=  0.828E-04 g(S)=  0.000E+00 ort =-0.484E-05 (trialstep = 0.103E+00)
 search vector abs. value=  0.123E-02
 bond charge predicted
       N       E                     dE             d eps       ncg     rms          rms(c)
DAV:   1    -0.737168666358E+02   -0.71521E-05   -0.59462E-04    52   0.165E-01    0.565E-03
RMM:   2    -0.737168671541E+02   -0.51838E-06   -0.81212E-06    41   0.179E-02
 114 F= -.73802177E+02 E0= -.73802177E+02  d E =-.669252E-05
 trial-energy change:   -0.000007  1 .order   -0.000006   -0.000008   -0.000005
 step:   0.3386(harm=  0.3386)  dis= 0.00071  next Energy=   -73.802182 (dE=-0.124E-04)
 bond charge predicted
       N       E                     dE             d eps       ncg     rms          rms(c)
DAV:   1    -0.737168751047E+02   -0.84690E-05   -0.30941E-03    42   0.377E-01    0.137E-02
RMM:   2    -0.737168771357E+02   -0.20310E-05   -0.41062E-05    42   0.402E-02    0.886E-03
RMM:   3    -0.737168772118E+02   -0.76085E-07   -0.43669E-06    36   0.116E-02
 115 F= -.73802185E+02 E0= -.73802185E+02  d E =-.146584E-04
 curvature:  -2.83 expect dE=-0.115E-03 dE for cont linesearch -0.261E-06
 ZBRENT: extrapolating
 opt :   0.4005  next Energy=   -73.802185 (dE=-0.150E-04)
 bond charge predicted
       N       E                     dE             d eps       ncg     rms          rms(c)
DAV:   1    -0.737168779117E+02   -0.77603E-06   -0.21234E-04    52   0.988E-02    0.354E-03
RMM:   2    -0.737168781442E+02   -0.23247E-06   -0.29220E-06    30   0.111E-02
 116 F= -.73802185E+02 E0= -.73802185E+02  d E =-.150387E-04
 curvature:  -3.57 expect dE=-0.178E-03 dE for cont linesearch -0.522E-07
 trial: gam= 0.43378 g(F)=  0.499E-04 g(S)=  0.000E+00 ort =-0.423E-05 (trialstep = 0.162E+00)
 search vector abs. value=  0.277E-03
 bond charge predicted
       N       E                     dE             d eps       ncg     rms          rms(c)
DAV:   1    -0.737168836430E+02   -0.57313E-05   -0.35611E-04    52   0.129E-01    0.482E-03
RMM:   2    -0.737168838873E+02   -0.24429E-06   -0.57041E-06    39   0.153E-02
 117 F= -.73802191E+02 E0= -.73802191E+02  d E =-.603564E-05
 trial-energy change:   -0.000006  1 .order   -0.000006   -0.000008   -0.000004
 step:   0.3135(harm=  0.3135)  dis= 0.00026  next Energy=   -73.802193 (dE=-0.754E-05)
 reached required accuracy - stopping structural energy minimisation
