 vasp.5.3.2 13Sep12 (build Mar 20 2013 16:50:23) gamma-only                      
 executed on             LinuxPgi date 2017.10.07  13:08:14
 running on    8 total cores
 distrk:  each k-point on    8 cores,    1 groups
 distr:  one band on NCORES_PER_BAND=   8 cores,    1 groups


--------------------------------------------------------------------------------------------------------


 INCAR:
 POTCAR:   PAW_GGA C 05Jan2001                    
 POTCAR:   PAW_GGA H 07Jul1998                    

 ----------------------------------------------------------------------------- 
|                                                                             |
|           W    W    AA    RRRRR   N    N  II  N    N   GGGG   !!!           |
|           W    W   A  A   R    R  NN   N  II  NN   N  G    G  !!!           |
|           W    W  A    A  R    R  N N  N  II  N N  N  G       !!!           |
|           W WW W  AAAAAA  RRRRR   N  N N  II  N  N N  G  GGG   !            |
|           WW  WW  A    A  R   R   N   NN  II  N   NN  G    G                |
|           W    W  A    A  R    R  N    N  II  N    N   GGGG   !!!           |
|                                                                             |
|      For optimal performance we recommend that you set                      |
|        NPAR = 4 - approx SQRT( number of cores)                             |
|      (number of cores/NPAR must be integer)                                 |
|      This setting will greatly improve the performance of VASP for DFT.     |
|      The default NPAR=number of cores might be grossly inefficient          |
|      on modern multi-core architectures or massively parallel machines.     |
|      Do your own testing.                                                   |
|      Unfortunately you need to use the default for hybrid, GW and RPA       |
|      calculations.                                                          |
|                                                                             |
 ----------------------------------------------------------------------------- 

 POTCAR:   PAW_GGA C 05Jan2001                    
   VRHFIN =C: s2p2                                                              
   LEXCH  = 91                                                                  
   EATOM  =   147.4688 eV,   10.8386 Ry                                         
                                                                                
   TITEL  = PAW_GGA C 05Jan2001                                                 
   LULTRA =        F    use ultrasoft PP ?                                      
   IUNSCR =        0    unscreen: 0-lin 1-nonlin 2-no                           
   RPACOR =     .000    partial core radius                                     
   POMASS =   12.011; ZVAL   =    4.000    mass and valenz                      
   RCORE  =    1.500    outmost cutoff radius                                   
   RWIGS  =    1.630; RWIGS  =     .863    wigner-seitz radius (au A)           
   ENMAX  =  400.000; ENMIN  =  300.000 eV                                      
   ICORE  =        2    local potential                                         
   LCOR   =        T    correct aug charges                                     
   LPAW   =        T    paw PP                                                  
   EAUG   =  644.873                                                            
   DEXC   =     .000                                                            
   RMAX   =    2.266    core radius for proj-oper                               
   RAUG   =    1.300    factor for augmentation sphere                          
   RDEP   =    1.501    radius for radial grids                                 
   RDEPT  =    1.300    core radius for aug-charge                              
   QCUT   =   -5.516; QGAM   =   11.033    optimization parameters              
                                                                                
   Description                                                                  
     l     E      TYP  RCUT    TYP  RCUT                                        
     0   .000     23  1.200                                                     
     0   .000     23  1.200                                                     
     1   .000     23  1.500                                                     
     1  2.500     23  1.500                                                     
     2   .000      7  1.500                                                     
  local pseudopotential read in
  atomic valenz-charges read in
  non local Contribution for L=            0  read in
    real space projection operators read in
  non local Contribution for L=            0  read in
    real space projection operators read in
  non local Contribution for L=            1  read in
    real space projection operators read in
  non local Contribution for L=            1  read in
    real space projection operators read in
    PAW grid and wavefunctions read in

   number of l-projection  operators is LMAX  =            4
   number of lm-projection operators is LMMAX =            8

 POTCAR:   PAW_GGA H 07Jul1998                    
   VRHFIN =H: ultrasoft test                                                    
   LEXCH  = 91                                                                  
   EATOM  =    12.5313 eV,     .9210 Ry                                         
                                                                                
   TITEL  = PAW_GGA H 07Jul1998                                                 
   LULTRA =        F    use ultrasoft PP ?                                      
   IUNSCR =        0    unscreen: 0-lin 1-nonlin 2-no                           
   RPACOR =     .000    partial core radius                                     
   POMASS =    1.000; ZVAL   =    1.000    mass and valenz                      
   RCORE  =    1.100    outmost cutoff radius                                   
   RWIGS  =     .700; RWIGS  =     .370    wigner-seitz radius (au A)           
   ENMAX  =  250.000; ENMIN  =  200.000 eV                                      
   RCLOC  =     .701    cutoff for local pot                                    
   LCOR   =        T    correct aug charges                                     
   LPAW   =        T    paw PP                                                  
   EAUG   =  400.000                                                            
   RMAX   =    2.174    core radius for proj-oper                               
   RAUG   =    1.200    factor for augmentation sphere                          
   RDEP   =    1.112    core radius for depl-charge                             
   QCUT   =   -5.749; QGAM   =   11.498    optimization parameters              
                                                                                
   Description                                                                  
     l     E      TYP  RCUT    TYP  RCUT                                        
     0   .000     23  1.100                                                     
     0   .500     23  1.100                                                     
     1  -.300     23  1.100                                                     
  local pseudopotential read in
  atomic valenz-charges read in
  non local Contribution for L=            0  read in
    real space projection operators read in
  non local Contribution for L=            0  read in
    real space projection operators read in
  non local Contribution for L=            1  read in
    real space projection operators read in
    PAW grid and wavefunctions read in

   number of l-projection  operators is LMAX  =            3
   number of lm-projection operators is LMMAX =            5


 ----------------------------------------------------------------------------- 
|                                                                             |
|  ADVICE TO THIS USER RUNNING 'VASP/VAMP'   (HEAR YOUR MASTER'S VOICE ...):  |
|                                                                             |
|      You have a (more or less) 'small supercell' and for smaller cells      |
|      it is recommended  to use the reciprocal-space projection scheme!      |
|      The real space optimization is not  efficient for small cells and it   |
|      is also less accurate ...                                              |
|      Therefore set LREAL=.FALSE. in the  INCAR file                         |
|                                                                             |
 ----------------------------------------------------------------------------- 

 Optimization of the real space projectors (new method)

 maximal supplied QI-value         = 25.13
 optimisation between [QCUT,QGAM] = [ 10.05, 20.36] = [ 28.30,116.06] Ry 
 Optimized for a Real-space Cutoff    1.30 Angstroem

   l    n(q)    QCUT    max X(q) W(low)/X(q) W(high)/X(q)  e(spline) 
   0      8    10.053     5.568    0.43E-04    0.43E-04    0.60E-07
   0      8    10.053    69.244    0.49E-03    0.71E-03    0.18E-06
   1      7    10.053     2.779    0.78E-04    0.12E-03    0.11E-06
   1      7    10.053     4.506    0.23E-03    0.19E-03    0.21E-06
 Optimization of the real space projectors (new method)

 maximal supplied QI-value         = 34.20
 optimisation between [QCUT,QGAM] = [  9.92, 20.18] = [ 27.55,114.04] Ry 
 Optimized for a Real-space Cutoff    1.26 Angstroem

   l    n(q)    QCUT    max X(q) W(low)/X(q) W(high)/X(q)  e(spline) 
   0      8     9.919     4.435    0.80E-04    0.66E-04    0.51E-07
   0      8     9.919    16.011    0.48E-03    0.23E-03    0.28E-06
   1      7     9.919     4.617    0.17E-03    0.74E-03    0.30E-06
 PAW_GGA C 05Jan2001                    :
 energy of atom  1       EATOM= -147.4688
 kinetic energy error for atom=    0.0288 (will be added to EATOM!!)
 PAW_GGA H 07Jul1998                    :
 energy of atom  2       EATOM=  -12.5313
 kinetic energy error for atom=    0.0098 (will be added to EATOM!!)


 POSCAR:  C H                                    
  positions in direct lattice
  No initial velocities read in
 exchange correlation table for  LEXCH =        7
   RHO(1)=    0.500       N(1)  =     2000
   RHO(2)=  100.500       N(2)  =     4000

 VTST: version 3.0, (09/19/12)

 CHAIN: initializing optimizer
 
 OPT: Using VASP Conjugate-Gradient optimizer
 CHAIN: Read ICHAIN             0

 POSCAR:  C H                                    
  positions in direct lattice
  No initial velocities read in



--------------------------------------------------------------------------------------------------------


 ion  position               nearest neighbor table
   1  0.000  1.000  0.055-   4 1.10   3 1.10   2 1.10
   2  0.948  1.000  0.073-   1 1.10
   3  0.026  0.955  0.073-   1 1.10
   4  0.025  0.045  0.073-   1 1.10


IMPORTANT INFORMATION: All symmetrisations will be switched off!
NOSYMM: (Re-)initialisation of all symmetry stuff for point group C_1.



 KPOINTS: Gamma-point only                        
  k-points in reciprocal lattice


--------------------------------------------------------------------------------------------------------




 Dimension of arrays:
   k-points           NKPTS =      1   k-points in BZ     NKDIM =      1   number of bands    NBANDS=      9
   number of dos      NEDOS =    301   number of ions     NIONS =      4
   non local maximal  LDIM  =      4   non local SUM 2l+1 LMDIM =      8
   total plane-waves  NPLWV = 941192
   max r-space proj   IRMAX =   1135   max aug-charges    IRDMAX=   1588
   dimension x,y,z NGX =    98 NGY =   98 NGZ =   98
   dimension x,y,z NGXF=   196 NGYF=  196 NGZF=  196
   support grid    NGXF=   196 NGYF=  196 NGZF=  196
   ions per type =               1   3
 NGX,Y,Z   is equivalent  to a cutoff of   8.15,  8.15,  8.15 a.u.
 NGXF,Y,Z  is equivalent  to a cutoff of  16.29, 16.29, 16.29 a.u.


 I would recommend the setting:
   dimension x,y,z NGX =    98 NGY =   98 NGZ =   98
 SYSTEM =  unknown system                          
 POSCAR =   C H                                    

 Startparameter for this run:
   NWRITE =      2    write-flag & timer
   PREC   = normal    normal or accurate (medium, high low for compatibility)
   ISTART =      0    job   : 0-new  1-cont  2-samecut
   ICHARG =      2    charge: 1-file 2-atom 10-const
   ISPIN  =      2    spin polarized calculation?
   LNONCOLLINEAR =      F non collinear calculations
   LSORBIT =      F    spin-orbit coupling
   INIWAV =      1    electr: 0-lowe 1-rand  2-diag
   LASPH  =      F    aspherical Exc in radial PAW
   METAGGA=      F    non-selfconsistent MetaGGA calc.

 Electronic Relaxation 1
   ENCUT  =  400.0 eV  29.40 Ry    5.42 a.u.  32.61 32.61 32.61*2*pi/ulx,y,z
   ENINI  =  400.0     initial cutoff
   ENAUG  =  644.9 eV  augmentation charge cutoff
   NELM   =    500;   NELMIN=  2; NELMDL= -5     # of ELM steps 
   EDIFF  = 0.1E-05   stopping-criterion for ELM
   LREAL  =      T    real-space projection
   NLSPLINE    = F    spline interpolate recip. space projectors
   LCOMPAT=      F    compatible to vasp.4.4
   GGA_COMPAT  = T    GGA compatible to vasp.4.4-vasp.4.6
   LMAXPAW     = -100 max onsite density
   LMAXMIX     =    2 max onsite mixed and CHGCAR
   VOSKOWN=      1    Vosko Wilk Nusair interpolation
   ROPT   =   -0.00050  -0.00050
 Ionic relaxation
   EDIFFG = -.5E-01   stopping-criterion for IOM
   NSW    =   2500    number of steps for IOM
   NBLOCK =      1;   KBLOCK =   2500    inner block; outer block 
   IBRION =      2    ionic relax: 0-MD 1-quasi-New 2-CG
   NFREE  =      1    steps in history (QN), initial steepest desc. (CG)
   ISIF   =      0    stress and relaxation
   IWAVPR =     11    prediction:  0-non 1-charg 2-wave 3-comb
   ISYM   =      0    0-nonsym 1-usesym 2-fastsym
   LCORR  =      T    Harris-Foulkes like correction to forces

   POTIM  = 0.2500    time-step for ionic-motion
   TEIN   =    0.0    initial temperature
   TEBEG  =    0.0;   TEEND  =   0.0 temperature during run
   SMASS  =  -3.00    Nose mass-parameter (am)
   estimated Nose-frequenzy (Omega)   =  0.10E-29 period in steps =****** mass=  -0.914E-26a.u.
   SCALEE = 1.0000    scale energy and forces
   NPACO  =    256;   APACO  = 16.0  distance and # of slots for P.C.
   PSTRESS=    0.0 pullay stress

  Mass of Ions in am
   POMASS =  12.01  1.00
  Ionic Valenz
   ZVAL   =   4.00  1.00
  Atomic Wigner-Seitz radii
   RWIGS  =  -1.00 -1.00
  virtual crystal weights 
   VCA    =   1.00  1.00
   NELECT =       7.0000    total number of electrons
   NUPDOWN=      -1.0000    fix difference up-down

 DOS related values:
   EMIN   =  10.00;   EMAX   =-10.00  energy-range for DOS
   EFERMI =   0.00
   ISMEAR =     0;   SIGMA  =   0.10  broadening in eV -4-tet -1-fermi 0-gaus

 Electronic relaxation 2 (details)
   IALGO  =     68    algorithm
   LDIAG  =      T    sub-space diagonalisation (order eigenvalues)
   LSUBROT=      T    optimize rotation matrix (better conditioning)
   TURBO    =      0    0=normal 1=particle mesh
   IRESTART =      0    0=no restart 2=restart with 2 vectors
   NREBOOT  =      0    no. of reboots
   NMIN     =      0    reboot dimension
   EREF     =   0.00    reference energy to select bands
   IMIX   =      4    mixing-type and parameters
     AMIX     =   0.40;   BMIX     =  1.00
     AMIX_MAG =   1.60;   BMIX_MAG =  1.00
     AMIN     =   0.10
     WC   =   100.;   INIMIX=   1;  MIXPRE=   1;  MAXMIX= -45

 Intra band minimization:
   WEIMIN = 0.0010     energy-eigenvalue tresh-hold
   EBREAK =  0.28E-07  absolut break condition
   DEPER  =   0.30     relativ break condition  

   TIME   =   0.40     timestep for ELM

  volume/ion in A,a.u.               =    2000.00     13496.67
  Fermi-wavevector in a.u.,A,eV,Ry     =   0.156583  0.295899  0.333590  0.024518
  Thomas-Fermi vector in A             =   0.843774

 Write flags
   LWAVE  =      F    write WAVECAR
   LCHARG =      F    write CHGCAR
   LVTOT  =      F    write LOCPOT, total local potential
   LVHAR  =      F    write LOCPOT, Hartree potential only
   LELF   =      F    write electronic localiz. function (ELF)
   LORBIT =      0    0 simple, 1 ext, 2 COOP (PROOUT)


 Dipole corrections
   LMONO  =      F    monopole corrections only (constant potential shift)
   LDIPOL =      F    correct potential (dipole corrections)
   IDIPOL =      0    1-x, 2-y, 3-z, 4-all directions 
   EPSILON=  1.0000000 bulk dielectric constant

 Exchange correlation treatment:
   GGA     =    91    GGA type
   LEXCH   =     7    internal setting for exchange type
   VOSKOWN=      1    Vosko Wilk Nusair interpolation
   LHFCALC =     F    Hartree Fock is set to
   LHFONE  =     F    Hartree Fock one center treatment
   AEXX    =    0.0000 exact exchange contribution

 Linear response parameters
   LEPSILON=     F    determine dielectric tensor
   LRPA    =     F    only Hartree local field effects (RPA)
   LNABLA  =     F    use nabla operator in PAW spheres
   LVEL    =     F    velocity operator in full k-point grid
   LINTERFAST=   F  fast interpolation
   KINTER  =     0    interpolate to denser k-point grid
   CSHIFT  =0.1000    complex shift for real part using Kramers Kronig
   OMEGAMAX=  -1.0    maximum frequency
   DEG_THRESHOLD= 0.2000000E-02 threshold for treating states as degnerate
   RTIME   =    0.100 relaxation time in fs

 Orbital magnetization related:
   ORBITALMAG=     F  switch on orbital magnetization
   LCHIMAG   =     F  perturbation theory with respect to B field
   DQ        =  0.001000  dq finite difference perturbation B field



--------------------------------------------------------------------------------------------------------


 conjugate gradient relaxation of ions
 charge density and potential will be updated during run
 spin polarized calculation
 RMM-DIIS sequential band-by-band and
  variant of blocked Davidson during initial phase
 perform sub-space diagonalisation
    before iterative eigenvector-optimisation
 modified Broyden-mixing scheme, WC =      100.0
 initial mixing is a Kerker type mixing with AMIX =  0.4000 and BMIX =      1.0000
 Hartree-type preconditioning will be used
 using additional bands             5
 real space projection scheme for non local part
 calculate Harris-corrections to forces 
   (improved forces if not selfconsistent)
 use gradient corrections 
 use of overlap-Matrix (Vanderbilt PP)
 Gauss-broadening in eV      SIGMA  =   0.10


--------------------------------------------------------------------------------------------------------


  energy-cutoff  :      400.00
  volume of cell :     8000.00
      direct lattice vectors                 reciprocal lattice vectors
    20.000000000  0.000000000  0.000000000     0.050000000  0.000000000  0.000000000
     0.000000000 20.000000000  0.000000000     0.000000000  0.050000000  0.000000000
     0.000000000  0.000000000 20.000000000     0.000000000  0.000000000  0.050000000

  length of vectors
    20.000000000 20.000000000 20.000000000     0.050000000  0.050000000  0.050000000



 k-points in units of 2pi/SCALE and weight: Gamma-point only                        
   0.00000000  0.00000000  0.00000000       1.000

 k-points in reciprocal lattice and weights: Gamma-point only                        
   0.00000000  0.00000000  0.00000000       1.000

 position of ions in fractional coordinates (direct lattice) 
   0.00000089  0.99999958  0.05487666
   0.94833856  0.99955130  0.07325708
   0.02622075  0.95548813  0.07325370
   0.02543851  0.04496167  0.07325400

 position of ions in cartesian coordinates  (Angst):
   0.00001777 19.99999160  1.09753316
  18.96677121 19.99102593  1.46514152
   0.52441495 19.10976260  1.46507406
   0.50877025  0.89923339  1.46507997



--------------------------------------------------------------------------------------------------------


 use parallel FFT for wavefunctions z direction half grid
 k-point  1 :   0.0000 0.0000 0.0000  plane waves:   72583

 maximum and minimum number of plane-waves per node :      9081     9067

 maximum number of plane-waves:     72583
 maximum index in each direction: 
   IXMAX=   32   IYMAX=   32   IZMAX=   32
   IXMIN=  -32   IYMIN=  -32   IZMIN=    0

 WARNING: aliasing errors must be expected set NGX to 130 to avoid them
 WARNING: aliasing errors must be expected set NGY to 130 to avoid them
 WARNING: aliasing errors must be expected set NGZ to 130 to avoid them
 aliasing errors are usually negligible using standard VASP settings
 and one can safely disregard these warnings

 real space projection operators:
  total allocation   :        179.90 KBytes
  max/ min on nodes  :         35.91         16.20


 parallel 3D FFT for wavefunctions:
    minimum data exchange during FFTs selected (reduces bandwidth)
 parallel 3D FFT for charge:
    minimum data exchange during FFTs selected (reduces bandwidth)


 total amount of memory used by VASP on root node   155239. kBytes
========================================================================

   base      :      30000. kBytes
   nonlr-proj:         43. kBytes
   fftplans  :      35092. kBytes
   grid      :      87488. kBytes
   one-center:          3. kBytes
   wavefun   :       2613. kBytes

 Broyden mixing: mesh for mixing (old mesh)
   NGX = 65   NGY = 65   NGZ = 65
  (NGX  =196   NGY  =196   NGZ  =196)
  gives a total of 274625 points

 initial charge density was supplied:
 charge density of overlapping atoms calculated
 number of electron       7.0000000 magnetization       4.0000000
 keeping initial charge density in first step


--------------------------------------------------------------------------------------------------------


 Maximum index for non-local projection operator           236
 Maximum index for augmentation-charges           243 (set IRDMAX)


--------------------------------------------------------------------------------------------------------


 First call to EWALD:  gamma=   0.089
 Maximum number of real-space cells 3x 3x 3
 Maximum number of reciprocal cells 3x 3x 3

 FEWALD executed in parallel
    FEWALD:  cpu time    0.00: real time    0.00


----------------------------------------- Iteration    1(   1)  ---------------------------------------


    POTLOK:  cpu time   16.39: real time   16.40
    SETDIJ:  cpu time    0.04: real time    0.04
     EDDAV:  cpu time    1.39: real time    1.39
       DOS:  cpu time    0.00: real time    0.00
    --------------------------------------------
      LOOP:  cpu time   17.82: real time   17.83

 eigenvalue-minimisations  :    44
 total energy-change (2. order) : 0.4943754E+02  (-0.8312317E+02)
 number of electron       7.0000000 magnetization       4.0000000
 augmentation part        7.0000000 magnetization       4.0000000

 Free energy of the ion-electron system (eV)
  ---------------------------------------------------
  alpha Z        PSCENC =         0.02402262
  Ewald energy   TEWEN  =       131.74854372
  -1/2 Hartree   DENC   =      -247.27900281
  -exchange  EXHF       =         0.00000000
  -V(xc)+E(xc)   XCENC  =        20.93365063
  PAW double counting   =        39.42505537      -40.64904271
  entropy T*S    EENTRO =        -0.04149560
  eigenvalues    EBANDS =       -39.72875994
  atomic energy  EATOM  =       185.00456876
  ---------------------------------------------------
  free energy    TOTEN  =        49.43754005 eV

  energy without entropy =       49.47903565  energy(sigma->0) =       49.45828785


--------------------------------------------------------------------------------------------------------




----------------------------------------- Iteration    1(   2)  ---------------------------------------


     EDDAV:  cpu time    1.97: real time    1.97
       DOS:  cpu time    0.00: real time    0.00
    --------------------------------------------
      LOOP:  cpu time    1.97: real time    1.97

 eigenvalue-minimisations  :    68
 total energy-change (2. order) :-0.4253730E+02  (-0.3988123E+02)
 number of electron       7.0000000 magnetization       4.0000000
 augmentation part        7.0000000 magnetization       4.0000000

 Free energy of the ion-electron system (eV)
  ---------------------------------------------------
  alpha Z        PSCENC =         0.02402262
  Ewald energy   TEWEN  =       131.74854372
  -1/2 Hartree   DENC   =      -247.27900281
  -exchange  EXHF       =         0.00000000
  -V(xc)+E(xc)   XCENC  =        20.93365063
  PAW double counting   =        39.42505537      -40.64904271
  entropy T*S    EENTRO =         0.00000000
  eigenvalues    EBANDS =       -82.30755288
  atomic energy  EATOM  =       185.00456876
  ---------------------------------------------------
  free energy    TOTEN  =         6.90024271 eV

  energy without entropy =        6.90024271  energy(sigma->0) =        6.90024271


--------------------------------------------------------------------------------------------------------




----------------------------------------- Iteration    1(   3)  ---------------------------------------


     EDDAV:  cpu time    1.47: real time    1.47
       DOS:  cpu time    0.00: real time    0.00
    --------------------------------------------
      LOOP:  cpu time    1.47: real time    1.48

 eigenvalue-minimisations  :    48
 total energy-change (2. order) :-0.1908929E+02  (-0.1907914E+02)
 number of electron       7.0000000 magnetization       4.0000000
 augmentation part        7.0000000 magnetization       4.0000000

 Free energy of the ion-electron system (eV)
  ---------------------------------------------------
  alpha Z        PSCENC =         0.02402262
  Ewald energy   TEWEN  =       131.74854372
  -1/2 Hartree   DENC   =      -247.27900281
  -exchange  EXHF       =         0.00000000
  -V(xc)+E(xc)   XCENC  =        20.93365063
  PAW double counting   =        39.42505537      -40.64904271
  entropy T*S    EENTRO =         0.00000000
  eigenvalues    EBANDS =      -101.39684326
  atomic energy  EATOM  =       185.00456876
  ---------------------------------------------------
  free energy    TOTEN  =       -12.18904767 eV

  energy without entropy =      -12.18904767  energy(sigma->0) =      -12.18904767


--------------------------------------------------------------------------------------------------------




----------------------------------------- Iteration    1(   4)  ---------------------------------------


     EDDAV:  cpu time    1.23: real time    1.23
       DOS:  cpu time    0.00: real time    0.00
    --------------------------------------------
      LOOP:  cpu time    1.24: real time    1.24

 eigenvalue-minimisations  :    39
 total energy-change (2. order) :-0.1145235E+01  (-0.1145087E+01)
 number of electron       7.0000000 magnetization       4.0000000
 augmentation part        7.0000000 magnetization       4.0000000

 Free energy of the ion-electron system (eV)
  ---------------------------------------------------
  alpha Z        PSCENC =         0.02402262
  Ewald energy   TEWEN  =       131.74854372
  -1/2 Hartree   DENC   =      -247.27900281
  -exchange  EXHF       =         0.00000000
  -V(xc)+E(xc)   XCENC  =        20.93365063
  PAW double counting   =        39.42505537      -40.64904271
  entropy T*S    EENTRO =         0.00000000
  eigenvalues    EBANDS =      -102.54207783
  atomic energy  EATOM  =       185.00456876
  ---------------------------------------------------
  free energy    TOTEN  =       -13.33428225 eV

  energy without entropy =      -13.33428225  energy(sigma->0) =      -13.33428225


--------------------------------------------------------------------------------------------------------




----------------------------------------- Iteration    1(   5)  ---------------------------------------


     EDDAV:  cpu time    2.05: real time    2.05
       DOS:  cpu time    0.00: real time    0.00
    CHARGE:  cpu time    0.50: real time    0.50
    MIXING:  cpu time    0.10: real time    0.10
    --------------------------------------------
      LOOP:  cpu time    2.65: real time    2.65

 eigenvalue-minimisations  :    71
 total energy-change (2. order) :-0.3438033E-01  (-0.3438031E-01)
 number of electron       6.9999984 magnetization       3.5688153
 augmentation part        0.1705297 magnetization       2.6216887

 Broyden mixing:
  rms(total) = 0.11367E+01    rms(broyden)= 0.11354E+01
  rms(prec ) = 0.11978E+01
  weight for this iteration     100.00

 Free energy of the ion-electron system (eV)
  ---------------------------------------------------
  alpha Z        PSCENC =         0.02402262
  Ewald energy   TEWEN  =       131.74854372
  -1/2 Hartree   DENC   =      -247.27900281
  -exchange  EXHF       =         0.00000000
  -V(xc)+E(xc)   XCENC  =        20.93365063
  PAW double counting   =        39.42505537      -40.64904271
  entropy T*S    EENTRO =         0.00000000
  eigenvalues    EBANDS =      -102.57645816
  atomic energy  EATOM  =       185.00456876
  ---------------------------------------------------
  free energy    TOTEN  =       -13.36866258 eV

  energy without entropy =      -13.36866258  energy(sigma->0) =      -13.36866258


--------------------------------------------------------------------------------------------------------




----------------------------------------- Iteration    1(   6)  ---------------------------------------


    POTLOK:  cpu time   18.71: real time   18.71
    SETDIJ:  cpu time    0.04: real time    0.04
    EDDIAG:  cpu time    0.26: real time    0.26
  RMM-DIIS:  cpu time    0.91: real time    0.91
    ORTHCH:  cpu time    0.00: real time    0.00
       DOS:  cpu time    0.00: real time    0.00
    CHARGE:  cpu time    0.46: real time    0.46
    MIXING:  cpu time    0.11: real time    0.11
    --------------------------------------------
      LOOP:  cpu time   20.50: real time   20.50

 eigenvalue-minimisations  :    36
 total energy-change (2. order) : 0.2068643E+01  (-0.2922795E+01)
 number of electron       6.9999989 magnetization       3.2319459
 augmentation part        0.1659692 magnetization       2.2607011

 Broyden mixing:
  rms(total) = 0.51918E+00    rms(broyden)= 0.51879E+00
  rms(prec ) = 0.54846E+00
  weight for this iteration     100.00

 eigenvalues of (default mixing * dielectric matrix)
  average eigenvalue GAMMA=   0.8283
  0.8283

 Free energy of the ion-electron system (eV)
  ---------------------------------------------------
  alpha Z        PSCENC =         0.02402262
  Ewald energy   TEWEN  =       131.74854372
  -1/2 Hartree   DENC   =      -262.36226490
  -exchange  EXHF       =         0.00000000
  -V(xc)+E(xc)   XCENC  =        26.65383517
  PAW double counting   =        62.95114340      -64.33386024
  entropy T*S    EENTRO =         0.00000000
  eigenvalues    EBANDS =       -90.98600859
  atomic energy  EATOM  =       185.00456876
  ---------------------------------------------------
  free energy    TOTEN  =       -11.30002005 eV

  energy without entropy =      -11.30002005  energy(sigma->0) =      -11.30002005


--------------------------------------------------------------------------------------------------------




----------------------------------------- Iteration    1(   7)  ---------------------------------------


    POTLOK:  cpu time   18.80: real time   18.80
    SETDIJ:  cpu time    0.04: real time    0.04
    EDDIAG:  cpu time    0.26: real time    0.26
  RMM-DIIS:  cpu time    0.91: real time    0.91
    ORTHCH:  cpu time    0.00: real time    0.00
       DOS:  cpu time    0.00: real time    0.00
    CHARGE:  cpu time    0.46: real time    0.46
    MIXING:  cpu time    0.12: real time    0.12
    --------------------------------------------
      LOOP:  cpu time   20.59: real time   20.60

 eigenvalue-minimisations  :    36
 total energy-change (2. order) :-0.3365527E+01  (-0.3780648E+00)
 number of electron       6.9999991 magnetization       2.8703049
 augmentation part        0.1548049 magnetization       1.9021561

 Broyden mixing:
  rms(total) = 0.30412E+00    rms(broyden)= 0.30396E+00
  rms(prec ) = 0.32133E+00
  weight for this iteration     100.00

 eigenvalues of (default mixing * dielectric matrix)
  average eigenvalue GAMMA=   0.9368
  0.8542  1.0194

 Free energy of the ion-electron system (eV)
  ---------------------------------------------------
  alpha Z        PSCENC =         0.02402262
  Ewald energy   TEWEN  =       131.74854372
  -1/2 Hartree   DENC   =      -268.47487460
  -exchange  EXHF       =         0.00000000
  -V(xc)+E(xc)   XCENC  =        24.53069562
  PAW double counting   =        70.22651524      -71.64556664
  entropy T*S    EENTRO =         0.00000000
  eigenvalues    EBANDS =       -86.07945169
  atomic energy  EATOM  =       185.00456876
  ---------------------------------------------------
  free energy    TOTEN  =       -14.66554696 eV

  energy without entropy =      -14.66554696  energy(sigma->0) =      -14.66554696


--------------------------------------------------------------------------------------------------------




----------------------------------------- Iteration    1(   8)  ---------------------------------------


    POTLOK:  cpu time   18.80: real time   18.80
    SETDIJ:  cpu time    0.04: real time    0.04
    EDDIAG:  cpu time    0.26: real time    0.26
  RMM-DIIS:  cpu time    0.92: real time    0.92
    ORTHCH:  cpu time    0.00: real time    0.00
       DOS:  cpu time    0.00: real time    0.00
    CHARGE:  cpu time    0.49: real time    0.49
    MIXING:  cpu time    0.12: real time    0.12
    --------------------------------------------
      LOOP:  cpu time   20.63: real time   20.64

 eigenvalue-minimisations  :    36
 total energy-change (2. order) :-0.8243125E+00  (-0.4158629E-01)
 number of electron       6.9999991 magnetization       2.3608434
 augmentation part        0.1529897 magnetization       1.3950586

 Broyden mixing:
  rms(total) = 0.16943E+00    rms(broyden)= 0.16940E+00
  rms(prec ) = 0.17905E+00
  weight for this iteration     100.00

 eigenvalues of (default mixing * dielectric matrix)
  average eigenvalue GAMMA=   1.2236
  0.7191  1.0881  1.8636

 Free energy of the ion-electron system (eV)
  ---------------------------------------------------
  alpha Z        PSCENC =         0.02402262
  Ewald energy   TEWEN  =       131.74854372
  -1/2 Hartree   DENC   =      -271.55605548
  -exchange  EXHF       =         0.00000000
  -V(xc)+E(xc)   XCENC  =        23.96151150
  PAW double counting   =        73.28465779      -74.68482280
  entropy T*S    EENTRO =         0.00000000
  eigenvalues    EBANDS =       -83.27228560
  atomic energy  EATOM  =       185.00456876
  ---------------------------------------------------
  free energy    TOTEN  =       -15.48985949 eV

  energy without entropy =      -15.48985949  energy(sigma->0) =      -15.48985949


--------------------------------------------------------------------------------------------------------




----------------------------------------- Iteration    1(   9)  ---------------------------------------


    POTLOK:  cpu time   18.80: real time   18.81
    SETDIJ:  cpu time    0.04: real time    0.04
    EDDIAG:  cpu time    0.26: real time    0.26
  RMM-DIIS:  cpu time    0.92: real time    0.92
    ORTHCH:  cpu time    0.00: real time    0.00
       DOS:  cpu time    0.00: real time    0.00
    CHARGE:  cpu time    0.49: real time    0.49
    MIXING:  cpu time    0.13: real time    0.13
    --------------------------------------------
      LOOP:  cpu time   20.65: real time   20.65

 eigenvalue-minimisations  :    36
 total energy-change (2. order) :-0.1108154E+01  (-0.3362859E-01)
 number of electron       6.9999990 magnetization       2.1437740
 augmentation part        0.1510676 magnetization       1.1803369

 Broyden mixing:
  rms(total) = 0.52869E-01    rms(broyden)= 0.52834E-01
  rms(prec ) = 0.56160E-01
  weight for this iteration     100.00

 eigenvalues of (default mixing * dielectric matrix)
  average eigenvalue GAMMA=   1.2002
  2.0197  1.2168  0.8788  0.6856

 Free energy of the ion-electron system (eV)
  ---------------------------------------------------
  alpha Z        PSCENC =         0.02402262
  Ewald energy   TEWEN  =       131.74854372
  -1/2 Hartree   DENC   =      -274.74668338
  -exchange  EXHF       =         0.00000000
  -V(xc)+E(xc)   XCENC  =        23.22256221
  PAW double counting   =        76.20083513      -77.60492659
  entropy T*S    EENTRO =         0.00000000
  eigenvalues    EBANDS =       -80.44693571
  atomic energy  EATOM  =       185.00456876
  ---------------------------------------------------
  free energy    TOTEN  =       -16.59801324 eV

  energy without entropy =      -16.59801324  energy(sigma->0) =      -16.59801324


--------------------------------------------------------------------------------------------------------




----------------------------------------- Iteration    1(  10)  ---------------------------------------


    POTLOK:  cpu time   18.83: real time   18.83
    SETDIJ:  cpu time    0.04: real time    0.04
    EDDIAG:  cpu time    0.26: real time    0.26
  RMM-DIIS:  cpu time    0.93: real time    0.93
    ORTHCH:  cpu time    0.00: real time    0.00
       DOS:  cpu time    0.00: real time    0.00
    CHARGE:  cpu time    0.49: real time    0.49
    MIXING:  cpu time    0.14: real time    0.14
    --------------------------------------------
      LOOP:  cpu time   20.69: real time   20.70

 eigenvalue-minimisations  :    36
 total energy-change (2. order) :-0.2566684E+00  (-0.4373475E-02)
 number of electron       6.9999990 magnetization       1.8612659
 augmentation part        0.1506563 magnetization       0.8985308

 Broyden mixing:
  rms(total) = 0.39275E-01    rms(broyden)= 0.39269E-01
  rms(prec ) = 0.41807E-01
  weight for this iteration     100.00

 eigenvalues of (default mixing * dielectric matrix)
  average eigenvalue GAMMA=   1.1616
  2.0841  1.2839  0.6644  0.8878  0.8878

 Free energy of the ion-electron system (eV)
  ---------------------------------------------------
  alpha Z        PSCENC =         0.02402262
  Ewald energy   TEWEN  =       131.74854372
  -1/2 Hartree   DENC   =      -275.54034753
  -exchange  EXHF       =         0.00000000
  -V(xc)+E(xc)   XCENC  =        23.04485862
  PAW double counting   =        76.60449826      -78.00192931
  entropy T*S    EENTRO =         0.00000000
  eigenvalues    EBANDS =       -79.73889673
  atomic energy  EATOM  =       185.00456876
  ---------------------------------------------------
  free energy    TOTEN  =       -16.85468159 eV

  energy without entropy =      -16.85468159  energy(sigma->0) =      -16.85468159


--------------------------------------------------------------------------------------------------------




----------------------------------------- Iteration    1(  11)  ---------------------------------------


    POTLOK:  cpu time   18.82: real time   18.83
    SETDIJ:  cpu time    0.04: real time    0.04
    EDDIAG:  cpu time    0.26: real time    0.26
  RMM-DIIS:  cpu time    0.91: real time    0.91
    ORTHCH:  cpu time    0.00: real time    0.00
       DOS:  cpu time    0.00: real time    0.00
    CHARGE:  cpu time    0.48: real time    0.48
    MIXING:  cpu time    0.15: real time    0.15
    --------------------------------------------
      LOOP:  cpu time   20.66: real time   20.67

 eigenvalue-minimisations  :    36
 total energy-change (2. order) :-0.3148728E+00  (-0.1332661E-02)
 number of electron       6.9999991 magnetization       1.4650483
 augmentation part        0.1502219 magnetization       0.5025224

 Broyden mixing:
  rms(total) = 0.27651E-01    rms(broyden)= 0.27648E-01
  rms(prec ) = 0.29234E-01
  weight for this iteration     100.00

 eigenvalues of (default mixing * dielectric matrix)
  average eigenvalue GAMMA=   1.3949
  2.7461  2.1046  1.1457  0.9598  0.7510  0.6623

 Free energy of the ion-electron system (eV)
  ---------------------------------------------------
  alpha Z        PSCENC =         0.02402262
  Ewald energy   TEWEN  =       131.74854372
  -1/2 Hartree   DENC   =      -276.14874641
  -exchange  EXHF       =         0.00000000
  -V(xc)+E(xc)   XCENC  =        22.76369773
  PAW double counting   =        76.62187754      -78.00936938
  entropy T*S    EENTRO =         0.00000000
  eigenvalues    EBANDS =       -79.17414897
  atomic energy  EATOM  =       185.00456876
  ---------------------------------------------------
  free energy    TOTEN  =       -17.16955439 eV

  energy without entropy =      -17.16955439  energy(sigma->0) =      -17.16955439


--------------------------------------------------------------------------------------------------------




----------------------------------------- Iteration    1(  12)  ---------------------------------------


    POTLOK:  cpu time   18.76: real time   18.77
    SETDIJ:  cpu time    0.04: real time    0.04
    EDDIAG:  cpu time    0.25: real time    0.26
  RMM-DIIS:  cpu time    0.91: real time    0.91
    ORTHCH:  cpu time    0.00: real time    0.00
       DOS:  cpu time    0.00: real time    0.00
    CHARGE:  cpu time    0.49: real time    0.49
    MIXING:  cpu time    0.17: real time    0.17
    --------------------------------------------
      LOOP:  cpu time   20.63: real time   20.63

 eigenvalue-minimisations  :    36
 total energy-change (2. order) :-0.3812712E+00  (-0.2029714E-02)
 number of electron       6.9999991 magnetization       1.2752153
 augmentation part        0.1499631 magnetization       0.3127929

 Broyden mixing:
  rms(total) = 0.15644E-01    rms(broyden)= 0.15641E-01
  rms(prec ) = 0.16700E-01
  weight for this iteration     100.00

 eigenvalues of (default mixing * dielectric matrix)
  average eigenvalue GAMMA=   1.4756
  3.7529  2.1182  0.6515  0.7241  1.0323  1.0323  1.0178

 Free energy of the ion-electron system (eV)
  ---------------------------------------------------
  alpha Z        PSCENC =         0.02402262
  Ewald energy   TEWEN  =       131.74854372
  -1/2 Hartree   DENC   =      -276.77073093
  -exchange  EXHF       =         0.00000000
  -V(xc)+E(xc)   XCENC  =        22.41444628
  PAW double counting   =        76.34263854      -77.72478135
  entropy T*S    EENTRO =         0.00000000
  eigenvalues    EBANDS =       -78.58953326
  atomic energy  EATOM  =       185.00456876
  ---------------------------------------------------
  free energy    TOTEN  =       -17.55082562 eV

  energy without entropy =      -17.55082562  energy(sigma->0) =      -17.55082562


--------------------------------------------------------------------------------------------------------




----------------------------------------- Iteration    1(  13)  ---------------------------------------


    POTLOK:  cpu time   18.74: real time   18.75
    SETDIJ:  cpu time    0.04: real time    0.04
    EDDIAG:  cpu time    0.25: real time    0.25
  RMM-DIIS:  cpu time    0.92: real time    0.92
    ORTHCH:  cpu time    0.00: real time    0.00
       DOS:  cpu time    0.00: real time    0.00
    CHARGE:  cpu time    0.49: real time    0.49
    MIXING:  cpu time    0.18: real time    0.18
    --------------------------------------------
      LOOP:  cpu time   20.63: real time   20.63

 eigenvalue-minimisations  :    36
 total energy-change (2. order) :-0.1429758E+00  (-0.8587916E-03)
 number of electron       6.9999991 magnetization       1.1109657
 augmentation part        0.1498182 magnetization       0.1487599

 Broyden mixing:
  rms(total) = 0.98079E-02    rms(broyden)= 0.98061E-02
  rms(prec ) = 0.10552E-01
  weight for this iteration     100.00

 eigenvalues of (default mixing * dielectric matrix)
  average eigenvalue GAMMA=   1.6399
  4.9773  1.9439  1.9439  1.1855  0.8651  0.8651  0.6977  0.6412

 Free energy of the ion-electron system (eV)
  ---------------------------------------------------
  alpha Z        PSCENC =         0.02402262
  Ewald energy   TEWEN  =       131.74854372
  -1/2 Hartree   DENC   =      -276.91326072
  -exchange  EXHF       =         0.00000000
  -V(xc)+E(xc)   XCENC  =        22.27920499
  PAW double counting   =        76.15233437      -77.53702036
  entropy T*S    EENTRO =         0.00000000
  eigenvalues    EBANDS =       -78.45219481
  atomic energy  EATOM  =       185.00456876
  ---------------------------------------------------
  free energy    TOTEN  =       -17.69380143 eV

  energy without entropy =      -17.69380143  energy(sigma->0) =      -17.69380143


--------------------------------------------------------------------------------------------------------




----------------------------------------- Iteration    1(  14)  ---------------------------------------


    POTLOK:  cpu time   18.60: real time   18.60
    SETDIJ:  cpu time    0.04: real time    0.04
    EDDIAG:  cpu time    0.26: real time    0.26
  RMM-DIIS:  cpu time    0.92: real time    0.92
    ORTHCH:  cpu time    0.00: real time    0.00
       DOS:  cpu time    0.00: real time    0.00
    CHARGE:  cpu time    0.48: real time    0.48
    MIXING:  cpu time    0.19: real time    0.19
    --------------------------------------------
      LOOP:  cpu time   20.49: real time   20.49

 eigenvalue-minimisations  :    36
 total energy-change (2. order) :-0.1099588E+00  (-0.6906515E-03)
 number of electron       6.9999991 magnetization       1.0580566
 augmentation part        0.1498618 magnetization       0.0961434

 Broyden mixing:
  rms(total) = 0.60152E-02    rms(broyden)= 0.60133E-02
  rms(prec ) = 0.66199E-02
  weight for this iteration     100.00

 eigenvalues of (default mixing * dielectric matrix)
  average eigenvalue GAMMA=   1.6491
  5.4714  2.2690  1.8357  1.0657  1.0657  1.0556  0.6469  0.6599  0.7725

 Free energy of the ion-electron system (eV)
  ---------------------------------------------------
  alpha Z        PSCENC =         0.02402262
  Ewald energy   TEWEN  =       131.74854372
  -1/2 Hartree   DENC   =      -276.91873962
  -exchange  EXHF       =         0.00000000
  -V(xc)+E(xc)   XCENC  =        22.16474514
  PAW double counting   =        75.93770846      -77.31996327
  entropy T*S    EENTRO =         0.00000000
  eigenvalues    EBANDS =       -78.44464607
  atomic energy  EATOM  =       185.00456876
  ---------------------------------------------------
  free energy    TOTEN  =       -17.80376025 eV

  energy without entropy =      -17.80376025  energy(sigma->0) =      -17.80376025


--------------------------------------------------------------------------------------------------------




----------------------------------------- Iteration    1(  15)  ---------------------------------------


    POTLOK:  cpu time   18.61: real time   18.61
    SETDIJ:  cpu time    0.04: real time    0.04
    EDDIAG:  cpu time    0.25: real time    0.25
  RMM-DIIS:  cpu time    0.91: real time    0.91
    ORTHCH:  cpu time    0.00: real time    0.00
       DOS:  cpu time    0.00: real time    0.00
    CHARGE:  cpu time    0.48: real time    0.48
    MIXING:  cpu time    0.21: real time    0.21
    --------------------------------------------
      LOOP:  cpu time   20.50: real time   20.51

 eigenvalue-minimisations  :    36
 total energy-change (2. order) :-0.3911245E-01  (-0.1703715E-03)
 number of electron       6.9999991 magnetization       1.0151996
 augmentation part        0.1498493 magnetization       0.0533821

 Broyden mixing:
  rms(total) = 0.29896E-02    rms(broyden)= 0.29883E-02
  rms(prec ) = 0.34608E-02
  weight for this iteration     100.00

 eigenvalues of (default mixing * dielectric matrix)
  average eigenvalue GAMMA=   1.7316
  6.0348  2.7317  1.7200  1.7200  1.2785  0.8870  0.8870  0.7587  0.6605  0.6377

 Free energy of the ion-electron system (eV)
  ---------------------------------------------------
  alpha Z        PSCENC =         0.02402262
  Ewald energy   TEWEN  =       131.74854372
  -1/2 Hartree   DENC   =      -276.93962089
  -exchange  EXHF       =         0.00000000
  -V(xc)+E(xc)   XCENC  =        22.12461026
  PAW double counting   =        75.99818809      -77.38113487
  entropy T*S    EENTRO =         0.00000000
  eigenvalues    EBANDS =       -78.42205040
  atomic energy  EATOM  =       185.00456876
  ---------------------------------------------------
  free energy    TOTEN  =       -17.84287269 eV

  energy without entropy =      -17.84287269  energy(sigma->0) =      -17.84287269


--------------------------------------------------------------------------------------------------------




----------------------------------------- Iteration    1(  16)  ---------------------------------------


    POTLOK:  cpu time   18.42: real time   18.43
    SETDIJ:  cpu time    0.04: real time    0.04
    EDDIAG:  cpu time    0.26: real time    0.26
  RMM-DIIS:  cpu time    0.92: real time    0.92
    ORTHCH:  cpu time    0.00: real time    0.00
       DOS:  cpu time    0.00: real time    0.00
    CHARGE:  cpu time    0.46: real time    0.46
    MIXING:  cpu time    0.22: real time    0.22
    --------------------------------------------
      LOOP:  cpu time   20.33: real time   20.33

 eigenvalue-minimisations  :    36
 total energy-change (2. order) :-0.3115346E-01  (-0.1156595E-03)
 number of electron       6.9999991 magnetization       1.0053759
 augmentation part        0.1497830 magnetization       0.0435993

 Broyden mixing:
  rms(total) = 0.24392E-02    rms(broyden)= 0.24375E-02
  rms(prec ) = 0.27802E-02
  weight for this iteration     100.00

 eigenvalues of (default mixing * dielectric matrix)
  average eigenvalue GAMMA=   1.7247
  6.4614  2.9138  2.1382  1.3237  1.2934  1.0068  1.0068  0.7644  0.7512  0.6300
  0.6822

 Free energy of the ion-electron system (eV)
  ---------------------------------------------------
  alpha Z        PSCENC =         0.02402262
  Ewald energy   TEWEN  =       131.74854372
  -1/2 Hartree   DENC   =      -276.94709045
  -exchange  EXHF       =         0.00000000
  -V(xc)+E(xc)   XCENC  =        22.09259447
  PAW double counting   =        76.07532728      -77.46604176
  entropy T*S    EENTRO =         0.00000000
  eigenvalues    EBANDS =       -78.40595080
  atomic energy  EATOM  =       185.00456876
  ---------------------------------------------------
  free energy    TOTEN  =       -17.87402615 eV

  energy without entropy =      -17.87402615  energy(sigma->0) =      -17.87402615


--------------------------------------------------------------------------------------------------------




----------------------------------------- Iteration    1(  17)  ---------------------------------------


    POTLOK:  cpu time   18.32: real time   18.33
    SETDIJ:  cpu time    0.04: real time    0.04
    EDDIAG:  cpu time    0.26: real time    0.26
  RMM-DIIS:  cpu time    0.92: real time    0.92
    ORTHCH:  cpu time    0.00: real time    0.00
       DOS:  cpu time    0.00: real time    0.00
    CHARGE:  cpu time    0.48: real time    0.49
    MIXING:  cpu time    0.23: real time    0.23
    --------------------------------------------
      LOOP:  cpu time   20.26: real time   20.27

 eigenvalue-minimisations  :    36
 total energy-change (2. order) :-0.5788629E-02  (-0.2306651E-04)
 number of electron       6.9999991 magnetization       0.9999201
 augmentation part        0.1497765 magnetization       0.0381741

 Broyden mixing:
  rms(total) = 0.10012E-02    rms(broyden)= 0.10011E-02
  rms(prec ) = 0.13281E-02
  weight for this iteration     100.00

 eigenvalues of (default mixing * dielectric matrix)
  average eigenvalue GAMMA=   1.7385
  6.7604  3.2640  2.2116  1.6937  1.0460  1.0460  1.0515  0.8916  0.8916  0.7231
  0.6550  0.6270

 Free energy of the ion-electron system (eV)
  ---------------------------------------------------
  alpha Z        PSCENC =         0.02402262
  Ewald energy   TEWEN  =       131.74854372
  -1/2 Hartree   DENC   =      -276.92330858
  -exchange  EXHF       =         0.00000000
  -V(xc)+E(xc)   XCENC  =        22.08548507
  PAW double counting   =        76.07133234      -77.44903117
  entropy T*S    EENTRO =         0.00000000
  eigenvalues    EBANDS =       -78.44142753
  atomic energy  EATOM  =       185.00456876
  ---------------------------------------------------
  free energy    TOTEN  =       -17.87981478 eV

  energy without entropy =      -17.87981478  energy(sigma->0) =      -17.87981478


--------------------------------------------------------------------------------------------------------




----------------------------------------- Iteration    1(  18)  ---------------------------------------


    POTLOK:  cpu time   17.88: real time   17.88
    SETDIJ:  cpu time    0.04: real time    0.04
    EDDIAG:  cpu time    0.26: real time    0.26
  RMM-DIIS:  cpu time    0.92: real time    0.92
    ORTHCH:  cpu time    0.00: real time    0.00
       DOS:  cpu time    0.00: real time    0.00
    CHARGE:  cpu time    0.49: real time    0.49
    MIXING:  cpu time    0.26: real time    0.26
    --------------------------------------------
      LOOP:  cpu time   19.84: real time   19.84

 eigenvalue-minimisations  :    36
 total energy-change (2. order) :-0.3179032E-02  (-0.1733969E-04)
 number of electron       6.9999991 magnetization       0.9983218
 augmentation part        0.1497823 magnetization       0.0365820

 Broyden mixing:
  rms(total) = 0.42645E-03    rms(broyden)= 0.42628E-03
  rms(prec ) = 0.72621E-03
  weight for this iteration     100.00

 eigenvalues of (default mixing * dielectric matrix)
  average eigenvalue GAMMA=   1.7674
  6.9149  3.7410  2.2583  1.9187  1.3015  1.3015  0.9750  0.9750  0.8123  0.8123
  0.6234  0.6493  0.6928

 Free energy of the ion-electron system (eV)
  ---------------------------------------------------
  alpha Z        PSCENC =         0.02402262
  Ewald energy   TEWEN  =       131.74854372
  -1/2 Hartree   DENC   =      -276.90554017
  -exchange  EXHF       =         0.00000000
  -V(xc)+E(xc)   XCENC  =        22.08157042
  PAW double counting   =        76.06379625      -77.44379531
  entropy T*S    EENTRO =         0.00000000
  eigenvalues    EBANDS =       -78.45616010
  atomic energy  EATOM  =       185.00456876
  ---------------------------------------------------
  free energy    TOTEN  =       -17.88299381 eV

  energy without entropy =      -17.88299381  energy(sigma->0) =      -17.88299381


--------------------------------------------------------------------------------------------------------




----------------------------------------- Iteration    1(  19)  ---------------------------------------


    POTLOK:  cpu time   17.98: real time   17.98
    SETDIJ:  cpu time    0.04: real time    0.04
    EDDIAG:  cpu time    0.26: real time    0.26
  RMM-DIIS:  cpu time    0.91: real time    0.91
    ORTHCH:  cpu time    0.00: real time    0.00
       DOS:  cpu time    0.00: real time    0.00
    CHARGE:  cpu time    0.49: real time    0.49
    MIXING:  cpu time    0.28: real time    0.28
    --------------------------------------------
      LOOP:  cpu time   19.95: real time   19.96

 eigenvalue-minimisations  :    36
 total energy-change (2. order) :-0.3667173E-03  (-0.1067483E-04)
 number of electron       6.9999991 magnetization       0.9983395
 augmentation part        0.1497842 magnetization       0.0365992

 Broyden mixing:
  rms(total) = 0.38106E-03    rms(broyden)= 0.38090E-03
  rms(prec ) = 0.56965E-03
  weight for this iteration     100.00

 eigenvalues of (default mixing * dielectric matrix)
  average eigenvalue GAMMA=   1.7178
  6.9350  3.8189  2.1043  2.1043  1.4526  1.1364  1.0356  1.0356  0.8753  0.8753
  0.7441  0.6205  0.6443  0.6676

 Free energy of the ion-electron system (eV)
  ---------------------------------------------------
  alpha Z        PSCENC =         0.02402262
  Ewald energy   TEWEN  =       131.74854372
  -1/2 Hartree   DENC   =      -276.89254417
  -exchange  EXHF       =         0.00000000
  -V(xc)+E(xc)   XCENC  =        22.08050510
  PAW double counting   =        76.05292015      -77.43502368
  entropy T*S    EENTRO =         0.00000000
  eigenvalues    EBANDS =       -78.46635303
  atomic energy  EATOM  =       185.00456876
  ---------------------------------------------------
  free energy    TOTEN  =       -17.88336053 eV

  energy without entropy =      -17.88336053  energy(sigma->0) =      -17.88336053


--------------------------------------------------------------------------------------------------------




----------------------------------------- Iteration    1(  20)  ---------------------------------------


    POTLOK:  cpu time   18.05: real time   18.05
    SETDIJ:  cpu time    0.04: real time    0.04
    EDDIAG:  cpu time    0.25: real time    0.25
  RMM-DIIS:  cpu time    0.91: real time    0.91
    ORTHCH:  cpu time    0.00: real time    0.00
       DOS:  cpu time    0.00: real time    0.00
    CHARGE:  cpu time    0.49: real time    0.49
    MIXING:  cpu time    0.30: real time    0.30
    --------------------------------------------
      LOOP:  cpu time   20.04: real time   20.05

 eigenvalue-minimisations  :    36
 total energy-change (2. order) :-0.4908591E-03  (-0.3350736E-05)
 number of electron       6.9999991 magnetization       0.9987334
 augmentation part        0.1497803 magnetization       0.0369875

 Broyden mixing:
  rms(total) = 0.22710E-03    rms(broyden)= 0.22685E-03
  rms(prec ) = 0.37699E-03
  weight for this iteration     100.00

 eigenvalues of (default mixing * dielectric matrix)
  average eigenvalue GAMMA=   1.7437
  6.9560  3.8950  2.2455  2.2455  1.8268  1.3343  1.3343  0.9682  0.9682  0.8613
  0.8613  0.7312  0.6697  0.6381  0.6195

 Free energy of the ion-electron system (eV)
  ---------------------------------------------------
  alpha Z        PSCENC =         0.02402262
  Ewald energy   TEWEN  =       131.74854372
  -1/2 Hartree   DENC   =      -276.89237908
  -exchange  EXHF       =         0.00000000
  -V(xc)+E(xc)   XCENC  =        22.07965167
  PAW double counting   =        76.05384973      -77.43489417
  entropy T*S    EENTRO =         0.00000000
  eigenvalues    EBANDS =       -78.46721465
  atomic energy  EATOM  =       185.00456876
  ---------------------------------------------------
  free energy    TOTEN  =       -17.88385139 eV

  energy without entropy =      -17.88385139  energy(sigma->0) =      -17.88385139


--------------------------------------------------------------------------------------------------------




----------------------------------------- Iteration    1(  21)  ---------------------------------------


    POTLOK:  cpu time   17.94: real time   17.95
    SETDIJ:  cpu time    0.04: real time    0.04
    EDDIAG:  cpu time    0.26: real time    0.26
  RMM-DIIS:  cpu time    0.91: real time    0.91
    ORTHCH:  cpu time    0.00: real time    0.00
       DOS:  cpu time    0.00: real time    0.00
    CHARGE:  cpu time    0.46: real time    0.46
    MIXING:  cpu time    0.32: real time    0.32
    --------------------------------------------
      LOOP:  cpu time   19.93: real time   19.93

 eigenvalue-minimisations  :    35
 total energy-change (2. order) :-0.6318366E-03  (-0.2501408E-05)
 number of electron       6.9999991 magnetization       0.9990698
 augmentation part        0.1497779 magnetization       0.0373225

 Broyden mixing:
  rms(total) = 0.21010E-03    rms(broyden)= 0.21004E-03
  rms(prec ) = 0.26323E-03
  weight for this iteration     100.00

 eigenvalues of (default mixing * dielectric matrix)
  average eigenvalue GAMMA=   1.7828
  6.9704  4.2802  3.0326  2.4143  2.0538  1.3236  1.3236  1.0049  1.0049  0.8809
  0.8809  0.7419  0.6978  0.6160  0.6577  0.6418

 Free energy of the ion-electron system (eV)
  ---------------------------------------------------
  alpha Z        PSCENC =         0.02402262
  Ewald energy   TEWEN  =       131.74854372
  -1/2 Hartree   DENC   =      -276.89405405
  -exchange  EXHF       =         0.00000000
  -V(xc)+E(xc)   XCENC  =        22.07857346
  PAW double counting   =        76.06057656      -77.43985834
  entropy T*S    EENTRO =         0.00000000
  eigenvalues    EBANDS =       -78.46685596
  atomic energy  EATOM  =       185.00456876
  ---------------------------------------------------
  free energy    TOTEN  =       -17.88448322 eV

  energy without entropy =      -17.88448322  energy(sigma->0) =      -17.88448322


--------------------------------------------------------------------------------------------------------




----------------------------------------- Iteration    1(  22)  ---------------------------------------


    POTLOK:  cpu time   17.73: real time   17.74
    SETDIJ:  cpu time    0.04: real time    0.04
    EDDIAG:  cpu time    0.26: real time    0.26
  RMM-DIIS:  cpu time    0.85: real time    0.85
    ORTHCH:  cpu time    0.00: real time    0.00
       DOS:  cpu time    0.00: real time    0.00
    CHARGE:  cpu time    0.46: real time    0.46
    MIXING:  cpu time    0.32: real time    0.32
    --------------------------------------------
      LOOP:  cpu time   19.67: real time   19.67

 eigenvalue-minimisations  :    33
 total energy-change (2. order) :-0.2014770E-03  (-0.6005741E-06)
 number of electron       6.9999991 magnetization       0.9993583
 augmentation part        0.1497752 magnetization       0.0376109

 Broyden mixing:
  rms(total) = 0.13951E-03    rms(broyden)= 0.13948E-03
  rms(prec ) = 0.18047E-03
  weight for this iteration     100.00

 eigenvalues of (default mixing * dielectric matrix)
  average eigenvalue GAMMA=   1.8017
  6.9834  4.7997  3.3939  2.1371  2.1371  1.5814  1.2950  1.2950  0.9820  0.9820
  0.8662  0.8662  0.7423  0.6926  0.6395  0.6319  0.6040

 Free energy of the ion-electron system (eV)
  ---------------------------------------------------
  alpha Z        PSCENC =         0.02402262
  Ewald energy   TEWEN  =       131.74854372
  -1/2 Hartree   DENC   =      -276.89596836
  -exchange  EXHF       =         0.00000000
  -V(xc)+E(xc)   XCENC  =        22.07849939
  PAW double counting   =        76.06184668      -77.44132896
  entropy T*S    EENTRO =         0.00000000
  eigenvalues    EBANDS =       -78.46486856
  atomic energy  EATOM  =       185.00456876
  ---------------------------------------------------
  free energy    TOTEN  =       -17.88468470 eV

  energy without entropy =      -17.88468470  energy(sigma->0) =      -17.88468470


--------------------------------------------------------------------------------------------------------




----------------------------------------- Iteration    1(  23)  ---------------------------------------


    POTLOK:  cpu time   17.33: real time   17.34
    SETDIJ:  cpu time    0.04: real time    0.04
    EDDIAG:  cpu time    0.25: real time    0.25
  RMM-DIIS:  cpu time    0.77: real time    0.77
    ORTHCH:  cpu time    0.00: real time    0.00
       DOS:  cpu time    0.00: real time    0.00
    CHARGE:  cpu time    0.49: real time    0.49
    MIXING:  cpu time    0.37: real time    0.37
    --------------------------------------------
      LOOP:  cpu time   19.26: real time   19.26

 eigenvalue-minimisations  :    30
 total energy-change (2. order) :-0.1580820E-03  (-0.1134556E-06)
 number of electron       6.9999991 magnetization       0.9997234
 augmentation part        0.1497749 magnetization       0.0379763

 Broyden mixing:
  rms(total) = 0.56150E-04    rms(broyden)= 0.56142E-04
  rms(prec ) = 0.92638E-04
  weight for this iteration     100.00

 eigenvalues of (default mixing * dielectric matrix)
  average eigenvalue GAMMA=   1.8735
  7.0162  5.7806  3.6262  2.3474  2.3474  1.9701  1.3470  1.3470  0.9962  0.9962
  0.9052  0.9052  0.7855  0.7855  0.6780  0.6525  0.6293  0.6072

 Free energy of the ion-electron system (eV)
  ---------------------------------------------------
  alpha Z        PSCENC =         0.02402262
  Ewald energy   TEWEN  =       131.74854372
  -1/2 Hartree   DENC   =      -276.89598091
  -exchange  EXHF       =         0.00000000
  -V(xc)+E(xc)   XCENC  =        22.07832951
  PAW double counting   =        76.05766644      -77.43791746
  entropy T*S    EENTRO =         0.00000000
  eigenvalues    EBANDS =       -78.46407546
  atomic energy  EATOM  =       185.00456876
  ---------------------------------------------------
  free energy    TOTEN  =       -17.88484278 eV

  energy without entropy =      -17.88484278  energy(sigma->0) =      -17.88484278


--------------------------------------------------------------------------------------------------------




----------------------------------------- Iteration    1(  24)  ---------------------------------------


    POTLOK:  cpu time   16.78: real time   16.79
    SETDIJ:  cpu time    0.04: real time    0.04
    EDDIAG:  cpu time    0.26: real time    0.26
  RMM-DIIS:  cpu time    0.79: real time    0.79
    ORTHCH:  cpu time    0.00: real time    0.00
       DOS:  cpu time    0.00: real time    0.00
    CHARGE:  cpu time    0.48: real time    0.48
    MIXING:  cpu time    0.38: real time    0.38
    --------------------------------------------
      LOOP:  cpu time   18.74: real time   18.75

 eigenvalue-minimisations  :    30
 total energy-change (2. order) :-0.1424938E-03  (-0.1048402E-06)
 number of electron       6.9999991 magnetization       0.9998114
 augmentation part        0.1497755 magnetization       0.0380649

 Broyden mixing:
  rms(total) = 0.67815E-04    rms(broyden)= 0.67811E-04
  rms(prec ) = 0.82051E-04
  weight for this iteration     100.00

 eigenvalues of (default mixing * dielectric matrix)
  average eigenvalue GAMMA=   1.8923
  7.1260  6.6514  3.7855  2.7082  2.0539  2.0539  1.3511  1.2491  1.2491  0.9706
  0.9706  0.8765  0.8765  0.7437  0.7437  0.6064  0.6548  0.6548  0.6277

 Free energy of the ion-electron system (eV)
  ---------------------------------------------------
  alpha Z        PSCENC =         0.02402262
  Ewald energy   TEWEN  =       131.74854372
  -1/2 Hartree   DENC   =      -276.89652590
  -exchange  EXHF       =         0.00000000
  -V(xc)+E(xc)   XCENC  =        22.07804191
  PAW double counting   =        76.05400747      -77.43466969
  entropy T*S    EENTRO =         0.00000000
  eigenvalues    EBANDS =       -78.46297417
  atomic energy  EATOM  =       185.00456876
  ---------------------------------------------------
  free energy    TOTEN  =       -17.88498528 eV

  energy without entropy =      -17.88498528  energy(sigma->0) =      -17.88498528


--------------------------------------------------------------------------------------------------------




----------------------------------------- Iteration    1(  25)  ---------------------------------------


    POTLOK:  cpu time   16.65: real time   16.66
    SETDIJ:  cpu time    0.04: real time    0.04
    EDDIAG:  cpu time    0.26: real time    0.26
  RMM-DIIS:  cpu time    0.75: real time    0.76
    ORTHCH:  cpu time    0.00: real time    0.00
       DOS:  cpu time    0.00: real time    0.00
    CHARGE:  cpu time    0.49: real time    0.49
    MIXING:  cpu time    0.42: real time    0.42
    --------------------------------------------
      LOOP:  cpu time   18.62: real time   18.62

 eigenvalue-minimisations  :    29
 total energy-change (2. order) :-0.1303396E-04  (-0.3065311E-07)
 number of electron       6.9999991 magnetization       0.9999142
 augmentation part        0.1497756 magnetization       0.0381673

 Broyden mixing:
  rms(total) = 0.32734E-04    rms(broyden)= 0.32730E-04
  rms(prec ) = 0.44842E-04
  weight for this iteration     100.00

 eigenvalues of (default mixing * dielectric matrix)
  average eigenvalue GAMMA=   1.8936
  7.3440  6.8490  3.8532  2.8186  1.9213  1.9213  1.5678  1.5678  1.4274  0.9902
  0.9902  0.8959  0.8959  0.8193  0.7795  0.6902  0.6038  0.6282  0.6670  0.6415

 Free energy of the ion-electron system (eV)
  ---------------------------------------------------
  alpha Z        PSCENC =         0.02402262
  Ewald energy   TEWEN  =       131.74854372
  -1/2 Hartree   DENC   =      -276.89832536
  -exchange  EXHF       =         0.00000000
  -V(xc)+E(xc)   XCENC  =        22.07807743
  PAW double counting   =        76.05593794      -77.43627509
  entropy T*S    EENTRO =         0.00000000
  eigenvalues    EBANDS =       -78.46154833
  atomic energy  EATOM  =       185.00456876
  ---------------------------------------------------
  free energy    TOTEN  =       -17.88499831 eV

  energy without entropy =      -17.88499831  energy(sigma->0) =      -17.88499831


--------------------------------------------------------------------------------------------------------




----------------------------------------- Iteration    1(  26)  ---------------------------------------


    POTLOK:  cpu time   16.23: real time   16.23
    SETDIJ:  cpu time    0.04: real time    0.04
    EDDIAG:  cpu time    0.25: real time    0.25
  RMM-DIIS:  cpu time    0.77: real time    0.77
    ORTHCH:  cpu time    0.00: real time    0.00
       DOS:  cpu time    0.00: real time    0.00
    CHARGE:  cpu time    0.50: real time    0.50
    MIXING:  cpu time    0.43: real time    0.43
    --------------------------------------------
      LOOP:  cpu time   18.23: real time   18.23

 eigenvalue-minimisations  :    29
 total energy-change (2. order) :-0.4179931E-04  (-0.3017758E-07)
 number of electron       6.9999991 magnetization       0.9999589
 augmentation part        0.1497752 magnetization       0.0382113

 Broyden mixing:
  rms(total) = 0.33067E-04    rms(broyden)= 0.33063E-04
  rms(prec ) = 0.37389E-04
  weight for this iteration     100.00

 eigenvalues of (default mixing * dielectric matrix)
  average eigenvalue GAMMA=   1.9404
  7.9540  6.9214  4.0415  3.1875  2.2166  2.2166  1.9033  1.3241  1.3241  1.2020
  0.9708  0.9708  0.8931  0.8931  0.7674  0.7674  0.6671  0.6671  0.6367  0.6024
  0.6211

 Free energy of the ion-electron system (eV)
  ---------------------------------------------------
  alpha Z        PSCENC =         0.02402262
  Ewald energy   TEWEN  =       131.74854372
  -1/2 Hartree   DENC   =      -276.90137445
  -exchange  EXHF       =         0.00000000
  -V(xc)+E(xc)   XCENC  =        22.07814652
  PAW double counting   =        76.05880305      -77.43876560
  entropy T*S    EENTRO =         0.00000000
  eigenvalues    EBANDS =       -78.45898474
  atomic energy  EATOM  =       185.00456876
  ---------------------------------------------------
  free energy    TOTEN  =       -17.88504011 eV

  energy without entropy =      -17.88504011  energy(sigma->0) =      -17.88504011


--------------------------------------------------------------------------------------------------------




----------------------------------------- Iteration    1(  27)  ---------------------------------------


    POTLOK:  cpu time   16.18: real time   16.19
    SETDIJ:  cpu time    0.04: real time    0.04
    EDDIAG:  cpu time    0.26: real time    0.26
  RMM-DIIS:  cpu time    0.77: real time    0.77
    ORTHCH:  cpu time    0.00: real time    0.00
       DOS:  cpu time    0.00: real time    0.00
    CHARGE:  cpu time    0.46: real time    0.46
    MIXING:  cpu time    0.46: real time    0.46
    --------------------------------------------
      LOOP:  cpu time   18.18: real time   18.19

 eigenvalue-minimisations  :    29
 total energy-change (2. order) :-0.1619273E-05  (-0.2065935E-07)
 number of electron       6.9999991 magnetization       0.9999770
 augmentation part        0.1497746 magnetization       0.0382292

 Broyden mixing:
  rms(total) = 0.17735E-04    rms(broyden)= 0.17728E-04
  rms(prec ) = 0.20429E-04
  weight for this iteration     100.00

 eigenvalues of (default mixing * dielectric matrix)
  average eigenvalue GAMMA=   1.9401
  8.3606  6.9259  4.2118  3.4067  2.2316  2.2316  1.8875  1.4157  1.4157  1.3190
  0.9798  0.9798  0.8841  0.8841  0.8259  0.8259  0.7023  0.7023  0.6360  0.6360
  0.6103  0.6103

 Free energy of the ion-electron system (eV)
  ---------------------------------------------------
  alpha Z        PSCENC =         0.02402262
  Ewald energy   TEWEN  =       131.74854372
  -1/2 Hartree   DENC   =      -276.90176262
  -exchange  EXHF       =         0.00000000
  -V(xc)+E(xc)   XCENC  =        22.07816191
  PAW double counting   =        76.05794464      -77.43806734
  entropy T*S    EENTRO =         0.00000000
  eigenvalues    EBANDS =       -78.45845343
  atomic energy  EATOM  =       185.00456876
  ---------------------------------------------------
  free energy    TOTEN  =       -17.88504173 eV

  energy without entropy =      -17.88504173  energy(sigma->0) =      -17.88504173


--------------------------------------------------------------------------------------------------------




----------------------------------------- Iteration    1(  28)  ---------------------------------------


    POTLOK:  cpu time   16.24: real time   16.24
    SETDIJ:  cpu time    0.04: real time    0.04
    EDDIAG:  cpu time    0.25: real time    0.25
  RMM-DIIS:  cpu time    0.75: real time    0.75
    ORTHCH:  cpu time    0.00: real time    0.00
       DOS:  cpu time    0.00: real time    0.00
    CHARGE:  cpu time    0.46: real time    0.46
    MIXING:  cpu time    0.49: real time    0.50
    --------------------------------------------
      LOOP:  cpu time   18.24: real time   18.24

 eigenvalue-minimisations  :    29
 total energy-change (2. order) : 0.6909686E-05  (-0.1238451E-07)
 number of electron       6.9999991 magnetization       0.9999898
 augmentation part        0.1497742 magnetization       0.0382417

 Broyden mixing:
  rms(total) = 0.76775E-05    rms(broyden)= 0.76673E-05
  rms(prec ) = 0.91452E-05
  weight for this iteration     100.00

 eigenvalues of (default mixing * dielectric matrix)
  average eigenvalue GAMMA=   2.0135
  9.1895  6.9345  4.7579  3.7013  2.6202  2.2016  1.8877  1.8877  1.4103  1.4103
  1.0252  0.9708  0.9708  0.9426  0.9426  0.8447  0.7297  0.7297  0.6581  0.6581
  0.6297  0.6041  0.6041

 Free energy of the ion-electron system (eV)
  ---------------------------------------------------
  alpha Z        PSCENC =         0.02402262
  Ewald energy   TEWEN  =       131.74854372
  -1/2 Hartree   DENC   =      -276.90151998
  -exchange  EXHF       =         0.00000000
  -V(xc)+E(xc)   XCENC  =        22.07816327
  PAW double counting   =        76.05674641      -77.43703862
  entropy T*S    EENTRO =         0.00000000
  eigenvalues    EBANDS =       -78.45852100
  atomic energy  EATOM  =       185.00456876
  ---------------------------------------------------
  free energy    TOTEN  =       -17.88503482 eV

  energy without entropy =      -17.88503482  energy(sigma->0) =      -17.88503482


--------------------------------------------------------------------------------------------------------




----------------------------------------- Iteration    1(  29)  ---------------------------------------


    POTLOK:  cpu time   16.24: real time   16.24
    SETDIJ:  cpu time    0.04: real time    0.04
    EDDIAG:  cpu time    0.25: real time    0.25
  RMM-DIIS:  cpu time    0.74: real time    0.74
    ORTHCH:  cpu time    0.00: real time    0.00
       DOS:  cpu time    0.00: real time    0.00
    CHARGE:  cpu time    0.49: real time    0.49
    MIXING:  cpu time    0.53: real time    0.53
    --------------------------------------------
      LOOP:  cpu time   18.30: real time   18.30

 eigenvalue-minimisations  :    28
 total energy-change (2. order) : 0.4093742E-05  (-0.6088403E-08)
 number of electron       6.9999991 magnetization       0.9999930
 augmentation part        0.1497740 magnetization       0.0382448

 Broyden mixing:
  rms(total) = 0.55036E-05    rms(broyden)= 0.54991E-05
  rms(prec ) = 0.65513E-05
  weight for this iteration     100.00

 eigenvalues of (default mixing * dielectric matrix)
  average eigenvalue GAMMA=   1.9942
  9.5233  6.9393  4.9972  3.7627  2.7412  2.1918  1.9275  1.9275  1.3700  1.3700
  1.0033  1.0033  1.0149  1.0149  0.8818  0.8818  0.7392  0.7392  0.7088  0.6624
  0.6449  0.6247  0.5960  0.5960

 Free energy of the ion-electron system (eV)
  ---------------------------------------------------
  alpha Z        PSCENC =         0.02402262
  Ewald energy   TEWEN  =       131.74854372
  -1/2 Hartree   DENC   =      -276.90156893
  -exchange  EXHF       =         0.00000000
  -V(xc)+E(xc)   XCENC  =        22.07816386
  PAW double counting   =        76.05654785      -77.43684809
  entropy T*S    EENTRO =         0.00000000
  eigenvalues    EBANDS =       -78.45846052
  atomic energy  EATOM  =       185.00456876
  ---------------------------------------------------
  free energy    TOTEN  =       -17.88503073 eV

  energy without entropy =      -17.88503073  energy(sigma->0) =      -17.88503073


--------------------------------------------------------------------------------------------------------




----------------------------------------- Iteration    1(  30)  ---------------------------------------


    POTLOK:  cpu time   16.24: real time   16.25
    SETDIJ:  cpu time    0.04: real time    0.04
    EDDIAG:  cpu time    0.26: real time    0.26
  RMM-DIIS:  cpu time    0.68: real time    0.68
    ORTHCH:  cpu time    0.00: real time    0.00
       DOS:  cpu time    0.00: real time    0.00
    CHARGE:  cpu time    0.49: real time    0.49
    MIXING:  cpu time    0.55: real time    0.55
    --------------------------------------------
      LOOP:  cpu time   18.26: real time   18.26

 eigenvalue-minimisations  :    23
 total energy-change (2. order) : 0.1108552E-05  (-0.6261391E-09)
 number of electron       6.9999991 magnetization       0.9999989
 augmentation part        0.1497740 magnetization       0.0382506

 Broyden mixing:
  rms(total) = 0.21188E-05    rms(broyden)= 0.21183E-05
  rms(prec ) = 0.33378E-05
  weight for this iteration     100.00

 eigenvalues of (default mixing * dielectric matrix)
  average eigenvalue GAMMA=   2.0162
  9.6155  6.9427  5.2184  3.8122  2.8811  2.2307  2.2307  1.6647  1.6647  1.6580
  1.3924  1.1735  0.9816  0.9816  0.9011  0.9011  0.8303  0.7610  0.7610  0.6928
  0.6464  0.6464  0.6214  0.5975  0.5975

 Free energy of the ion-electron system (eV)
  ---------------------------------------------------
  alpha Z        PSCENC =         0.02402262
  Ewald energy   TEWEN  =       131.74854372
  -1/2 Hartree   DENC   =      -276.90161192
  -exchange  EXHF       =         0.00000000
  -V(xc)+E(xc)   XCENC  =        22.07816178
  PAW double counting   =        76.05671550      -77.43698648
  entropy T*S    EENTRO =         0.00000000
  eigenvalues    EBANDS =       -78.45844360
  atomic energy  EATOM  =       185.00456876
  ---------------------------------------------------
  free energy    TOTEN  =       -17.88502962 eV

  energy without entropy =      -17.88502962  energy(sigma->0) =      -17.88502962


--------------------------------------------------------------------------------------------------------




----------------------------------------- Iteration    1(  31)  ---------------------------------------


    POTLOK:  cpu time   16.25: real time   16.26
    SETDIJ:  cpu time    0.04: real time    0.04
    EDDIAG:  cpu time    0.26: real time    0.26
  RMM-DIIS:  cpu time    0.73: real time    0.73
    ORTHCH:  cpu time    0.00: real time    0.00
       DOS:  cpu time    0.00: real time    0.00
    CHARGE:  cpu time    0.49: real time    0.49
    MIXING:  cpu time    0.60: real time    0.60
    --------------------------------------------
      LOOP:  cpu time   18.38: real time   18.38

 eigenvalue-minimisations  :    27
 total energy-change (2. order) : 0.2044320E-05  (-0.3297354E-08)
 number of electron       6.9999991 magnetization       1.0000015
 augmentation part        0.1497739 magnetization       0.0382531

 Broyden mixing:
  rms(total) = 0.50229E-05    rms(broyden)= 0.50213E-05
  rms(prec ) = 0.56279E-05
[...]
  RMM-DIIS:  cpu time    0.92: real time    0.92
    ORTHCH:  cpu time    0.00: real time    0.00
       DOS:  cpu time    0.00: real time    0.00
    CHARGE:  cpu time    0.49: real time    0.49
    MIXING:  cpu time    0.13: real time    0.13
    --------------------------------------------
      LOOP:  cpu time   18.83: real time   18.84

 eigenvalue-minimisations  :    35
 total energy-change (2. order) :-0.1088947E-03  (-0.1502622E-05)
 number of electron       6.9999982 magnetization       1.0000014
 augmentation part        0.1531800 magnetization       0.0452163

 Broyden mixing:
  rms(total) = 0.37984E-03    rms(broyden)= 0.37960E-03
  rms(prec ) = 0.42243E-03
  weight for this iteration     100.00

 eigenvalues of (default mixing * dielectric matrix)
  average eigenvalue GAMMA=   1.1895
  1.8045  1.4878  0.6474  0.8185

 Free energy of the ion-electron system (eV)
  ---------------------------------------------------
  alpha Z        PSCENC =         0.02402262
  Ewald energy   TEWEN  =       132.33250657
  -1/2 Hartree   DENC   =      -277.29653822
  -exchange  EXHF       =         0.00000000
  -V(xc)+E(xc)   XCENC  =        22.11632225
  PAW double counting   =        78.05140343      -79.44543865
  entropy T*S    EENTRO =         0.00000000
  eigenvalues    EBANDS =       -78.96956212
  atomic energy  EATOM  =       185.00456876
  ---------------------------------------------------
  free energy    TOTEN  =       -18.18271535 eV

  energy without entropy =      -18.18271535  energy(sigma->0) =      -18.18271535


--------------------------------------------------------------------------------------------------------




----------------------------------------- Iteration   15(   6)  ---------------------------------------


    POTLOK:  cpu time   17.05: real time   17.05
    SETDIJ:  cpu time    0.04: real time    0.04
    EDDIAG:  cpu time    0.26: real time    0.26
  RMM-DIIS:  cpu time    0.91: real time    0.91
    ORTHCH:  cpu time    0.00: real time    0.00
       DOS:  cpu time    0.00: real time    0.00
    CHARGE:  cpu time    0.49: real time    0.49
    MIXING:  cpu time    0.14: real time    0.14
    --------------------------------------------
      LOOP:  cpu time   18.88: real time   18.89

 eigenvalue-minimisations  :    35
 total energy-change (2. order) :-0.9622565E-04  (-0.8077904E-06)
 number of electron       6.9999982 magnetization       1.0000014
 augmentation part        0.1531841 magnetization       0.0452203

 Broyden mixing:
  rms(total) = 0.18155E-03    rms(broyden)= 0.18150E-03
  rms(prec ) = 0.21248E-03
  weight for this iteration     100.00

 eigenvalues of (default mixing * dielectric matrix)
  average eigenvalue GAMMA=   1.2695
  2.4332  1.5495  1.0599  0.6305  0.6745

 Free energy of the ion-electron system (eV)
  ---------------------------------------------------
  alpha Z        PSCENC =         0.02402262
  Ewald energy   TEWEN  =       132.33250657
  -1/2 Hartree   DENC   =      -277.29065341
  -exchange  EXHF       =         0.00000000
  -V(xc)+E(xc)   XCENC  =        22.11592859
  PAW double counting   =        78.05200534      -79.44592423
  entropy T*S    EENTRO =         0.00000000
  eigenvalues    EBANDS =       -78.97526582
  atomic energy  EATOM  =       185.00456876
  ---------------------------------------------------
  free energy    TOTEN  =       -18.18281157 eV

  energy without entropy =      -18.18281157  energy(sigma->0) =      -18.18281157


--------------------------------------------------------------------------------------------------------




----------------------------------------- Iteration   15(   7)  ---------------------------------------


    POTLOK:  cpu time   16.98: real time   16.98
    SETDIJ:  cpu time    0.04: real time    0.04
    EDDIAG:  cpu time    0.26: real time    0.26
  RMM-DIIS:  cpu time    0.81: real time    0.81
    ORTHCH:  cpu time    0.00: real time    0.00
       DOS:  cpu time    0.00: real time    0.00
    CHARGE:  cpu time    0.48: real time    0.48
    MIXING:  cpu time    0.15: real time    0.15
    --------------------------------------------
      LOOP:  cpu time   18.73: real time   18.73

 eigenvalue-minimisations  :    31
 total energy-change (2. order) :-0.4751557E-04  (-0.2116970E-06)
 number of electron       6.9999982 magnetization       1.0000014
 augmentation part        0.1531845 magnetization       0.0452199

 Broyden mixing:
  rms(total) = 0.90217E-04    rms(broyden)= 0.90203E-04
  rms(prec ) = 0.12509E-03
  weight for this iteration     100.00

 eigenvalues of (default mixing * dielectric matrix)
  average eigenvalue GAMMA=   1.2447
  2.4855  1.3614  1.3614  0.6367  0.6676  0.9556

 Free energy of the ion-electron system (eV)
  ---------------------------------------------------
  alpha Z        PSCENC =         0.02402262
  Ewald energy   TEWEN  =       132.33250657
  -1/2 Hartree   DENC   =      -277.29168082
  -exchange  EXHF       =         0.00000000
  -V(xc)+E(xc)   XCENC  =        22.11596562
  PAW double counting   =        78.05886861      -79.45279226
  entropy T*S    EENTRO =         0.00000000
  eigenvalues    EBANDS =       -78.97431821
  atomic energy  EATOM  =       185.00456876
  ---------------------------------------------------
  free energy    TOTEN  =       -18.18285909 eV

  energy without entropy =      -18.18285909  energy(sigma->0) =      -18.18285909


--------------------------------------------------------------------------------------------------------




----------------------------------------- Iteration   15(   8)  ---------------------------------------


    POTLOK:  cpu time   16.72: real time   16.73
    SETDIJ:  cpu time    0.04: real time    0.04
    EDDIAG:  cpu time    0.26: real time    0.26
  RMM-DIIS:  cpu time    0.79: real time    0.79
    ORTHCH:  cpu time    0.00: real time    0.00
       DOS:  cpu time    0.00: real time    0.00
    CHARGE:  cpu time    0.49: real time    0.49
    MIXING:  cpu time    0.16: real time    0.16
    --------------------------------------------
      LOOP:  cpu time   18.46: real time   18.47

 eigenvalue-minimisations  :    30
 total energy-change (2. order) :-0.2239322E-04  (-0.1297456E-06)
 number of electron       6.9999982 magnetization       1.0000014
 augmentation part        0.1531825 magnetization       0.0452178

 Broyden mixing:
  rms(total) = 0.64650E-04    rms(broyden)= 0.64633E-04
  rms(prec ) = 0.94669E-04
  weight for this iteration     100.00

 eigenvalues of (default mixing * dielectric matrix)
  average eigenvalue GAMMA=   1.2615
  2.4897  1.5655  1.5655  1.1818  0.6479  0.6479  0.7319

 Free energy of the ion-electron system (eV)
  ---------------------------------------------------
  alpha Z        PSCENC =         0.02402262
  Ewald energy   TEWEN  =       132.33250657
  -1/2 Hartree   DENC   =      -277.29423850
  -exchange  EXHF       =         0.00000000
  -V(xc)+E(xc)   XCENC  =        22.11606653
  PAW double counting   =        78.06317963      -79.45715220
  entropy T*S    EENTRO =         0.00000000
  eigenvalues    EBANDS =       -78.97183490
  atomic energy  EATOM  =       185.00456876
  ---------------------------------------------------
  free energy    TOTEN  =       -18.18288148 eV

  energy without entropy =      -18.18288148  energy(sigma->0) =      -18.18288148


--------------------------------------------------------------------------------------------------------




----------------------------------------- Iteration   15(   9)  ---------------------------------------


    POTLOK:  cpu time   16.31: real time   16.31
    SETDIJ:  cpu time    0.04: real time    0.04
    EDDIAG:  cpu time    0.26: real time    0.26
  RMM-DIIS:  cpu time    0.80: real time    0.80
    ORTHCH:  cpu time    0.00: real time    0.00
       DOS:  cpu time    0.00: real time    0.00
    CHARGE:  cpu time    0.49: real time    0.49
    MIXING:  cpu time    0.17: real time    0.18
    --------------------------------------------
      LOOP:  cpu time   18.08: real time   18.08

 eigenvalue-minimisations  :    30
 total energy-change (2. order) :-0.1004832E-04  (-0.7166550E-07)
 number of electron       6.9999982 magnetization       1.0000014
 augmentation part        0.1531816 magnetization       0.0452173

 Broyden mixing:
  rms(total) = 0.51632E-04    rms(broyden)= 0.51617E-04
  rms(prec ) = 0.72743E-04
  weight for this iteration     100.00

 eigenvalues of (default mixing * dielectric matrix)
  average eigenvalue GAMMA=   1.3190
  2.8822  2.1325  1.2633  1.1282  1.1282  0.7436  0.6492  0.6247

 Free energy of the ion-electron system (eV)
  ---------------------------------------------------
  alpha Z        PSCENC =         0.02402262
  Ewald energy   TEWEN  =       132.33250657
  -1/2 Hartree   DENC   =      -277.29395611
  -exchange  EXHF       =         0.00000000
  -V(xc)+E(xc)   XCENC  =        22.11601409
  PAW double counting   =        78.06272442      -79.45669342
  entropy T*S    EENTRO =         0.00000000
  eigenvalues    EBANDS =       -78.97207847
  atomic energy  EATOM  =       185.00456876
  ---------------------------------------------------
  free energy    TOTEN  =       -18.18289153 eV

  energy without entropy =      -18.18289153  energy(sigma->0) =      -18.18289153


--------------------------------------------------------------------------------------------------------




----------------------------------------- Iteration   15(  10)  ---------------------------------------


    POTLOK:  cpu time   16.29: real time   16.29
    SETDIJ:  cpu time    0.04: real time    0.04
    EDDIAG:  cpu time    0.26: real time    0.26
  RMM-DIIS:  cpu time    0.77: real time    0.77
    ORTHCH:  cpu time    0.00: real time    0.00
       DOS:  cpu time    0.00: real time    0.00
    --------------------------------------------
      LOOP:  cpu time   17.36: real time   17.37

 eigenvalue-minimisations  :    29
 total energy-change (2. order) :-0.4644361E-06  (-0.2819151E-07)
 number of electron       6.9999982 magnetization       1.0000014
 augmentation part        0.1531816 magnetization       0.0452173

 Free energy of the ion-electron system (eV)
  ---------------------------------------------------
  alpha Z        PSCENC =         0.02402262
  Ewald energy   TEWEN  =       132.33250657
  -1/2 Hartree   DENC   =      -277.29302002
  -exchange  EXHF       =         0.00000000
  -V(xc)+E(xc)   XCENC  =        22.11595763
  PAW double counting   =        78.06162262      -79.45557334
  entropy T*S    EENTRO =         0.00000000
  eigenvalues    EBANDS =       -78.97297685
  atomic energy  EATOM  =       185.00456876
  ---------------------------------------------------
  free energy    TOTEN  =       -18.18289200 eV

  energy without entropy =      -18.18289200  energy(sigma->0) =      -18.18289200


--------------------------------------------------------------------------------------------------------




 average (electrostatic) potential at core
  the test charge radii are     0.6991  0.5201
  (the norm of the test charge is              1.0000)
       1 -59.6695       2 -42.1777       3 -42.1842       4 -42.1844



 E-fermi :  -4.8784     XC(G=0):  -0.0861     alpha+bet : -0.0229


 spin component 1

 k-point   1 :       0.0000    0.0000    0.0000
  band No.  band energies     occupation 
      1     -16.9422      1.00000
      2     -10.3407      1.00000
      3     -10.3385      1.00000
      4      -5.3740      1.00000
      5      -0.5277      0.00000
      6       0.0659      0.00000
      7       0.2991      0.00000
      8       0.3009      0.00000
      9       0.3188      0.00000

 spin component 2

 k-point   1 :       0.0000    0.0000    0.0000
  band No.  band energies     occupation 
      1     -15.9825      1.00000
      2      -9.9987      1.00000
      3      -9.9965      1.00000
      4      -3.0370      0.00000
      5      -0.2519      0.00000
      6       0.0660      0.00000
      7       0.3218      0.00000
      8       0.3239      0.00000
      9       0.3632      0.00000


--------------------------------------------------------------------------------------------------------


 soft charge-density along one line, spin component            1
         0         1         2         3         4         5         6         7         8         9
 total charge-density along one line

 soft charge-density along one line, spin component            2
         0         1         2         3         4         5         6         7         8         9
 total charge-density along one line

 pseudopotential strength for first ion, spin component:            1
 10.481   0.023   0.000   0.000   0.000   0.000   0.000   0.000
  0.023  -0.001   0.000   0.000   0.000   0.000   0.000   0.000
  0.000   0.000  -4.384   0.000   0.000  -0.026   0.000   0.000
  0.000   0.000   0.000  -4.407   0.000   0.000  -0.025   0.000
  0.000   0.000   0.000   0.000  -4.384   0.000   0.000  -0.026
  0.000   0.000  -0.026   0.000   0.000  -0.850   0.000   0.000
  0.000   0.000   0.000  -0.025   0.000   0.000  -0.850   0.000
  0.000   0.000   0.000   0.000  -0.026   0.000   0.000  -0.850
 pseudopotential strength for first ion, spin component:            2
 10.290   0.015   0.000   0.000   0.000   0.000   0.000   0.000
  0.015  -0.001   0.000   0.000   0.000   0.000   0.000   0.000
  0.000   0.000  -4.365   0.000   0.000   0.001   0.000   0.000
  0.000   0.000   0.000  -4.282   0.000   0.000   0.017   0.000
  0.000   0.000   0.000   0.000  -4.365   0.000   0.000   0.001
  0.000   0.000   0.001   0.000   0.000  -0.849   0.000   0.000
  0.000   0.000   0.000   0.017   0.000   0.000  -0.847   0.000
  0.000   0.000   0.000   0.000   0.001   0.000   0.000  -0.849
 total augmentation occupancy for first ion, spin component:            1
  1.475  -0.974   0.000   0.000   0.000   0.000  -0.001   0.000
 -0.974   0.643   0.000   0.007   0.000   0.000   0.001   0.000
  0.000   0.000   1.179   0.000   0.000   0.196   0.000   0.000
  0.000   0.007   0.000   0.867   0.000   0.000   0.050   0.000
  0.000   0.000   0.000   0.000   1.178   0.000   0.000   0.195
  0.000   0.000   0.196   0.000   0.000   0.032   0.000   0.000
 -0.001   0.001   0.000   0.050   0.000   0.000   0.003   0.000
  0.000   0.000   0.000   0.000   0.195   0.000   0.000   0.032
 total augmentation occupancy for first ion, spin component:            2
  0.047  -0.015   0.000   0.005   0.000   0.000   0.000   0.000
 -0.015   0.000   0.000   0.004   0.000   0.000   0.000   0.000
  0.000   0.000   0.029   0.000   0.000   0.001   0.000   0.000
  0.005   0.004   0.000   0.867   0.000   0.000   0.050   0.000
  0.000   0.000   0.000   0.000   0.029   0.000   0.000   0.001
  0.000   0.000   0.001   0.000   0.000   0.000   0.000   0.000
  0.000   0.000   0.000   0.050   0.000   0.000   0.003   0.000
  0.000   0.000   0.000   0.000   0.001   0.000   0.000   0.000


------------------------ aborting loop because EDIFF is reached ----------------------------------------


    CHARGE:  cpu time    0.48: real time    0.48
    FORLOC:  cpu time    0.12: real time    0.12
    FORNL :  cpu time    0.46: real time    0.46
    FORHAR:  cpu time    0.69: real time    0.69
    MIXING:  cpu time    0.19: real time    0.19
    FORVDW:  cpu time    0.00: real time    0.00

 VOLUME and BASIS-vectors are now :
 -----------------------------------------------------------------------------
  energy-cutoff  :      400.00
  volume of cell :     8000.00
      direct lattice vectors                 reciprocal lattice vectors
    20.000000000  0.000000000  0.000000000     0.050000000  0.000000000  0.000000000
     0.000000000 20.000000000  0.000000000     0.000000000  0.050000000  0.000000000
     0.000000000  0.000000000 20.000000000     0.000000000  0.000000000  0.050000000

  length of vectors
    20.000000000 20.000000000 20.000000000     0.050000000  0.050000000  0.050000000


 FORCES acting on ions
    electron-ion (+dipol)            ewald-force                    non-local-force                 convergence-correction
 -----------------------------------------------------------------------------------------------
   0.714E-01 0.327E-02 -.713E+00   -.902E-01 -.359E-02 0.756E+00   -.135E-01 -.640E-03 -.651E-01   -.249E-04 -.145E-05 0.106E-02
   0.500E+02 0.438E+00 0.232E+00   -.559E+02 -.489E+00 -.259E+00   0.586E+01 0.509E-01 0.305E-01   0.102E-03 0.764E-06 0.227E-03
   -.254E+02 0.432E+02 0.224E+00   0.284E+02 -.482E+02 -.249E+00   -.298E+01 0.506E+01 0.297E-01   -.537E-04 0.854E-04 0.227E-03
   -.247E+02 -.436E+02 0.222E+00   0.276E+02 0.487E+02 -.247E+00   -.289E+01 -.511E+01 0.295E-01   -.519E-04 -.861E-04 0.227E-03
 -----------------------------------------------------------------------------------------------
   0.245E-01 0.179E-02 -.345E-01   0.000E+00 0.000E+00 0.000E+00   -.302E-01 -.185E-02 0.246E-01   -.284E-04 -.138E-05 0.174E-02


 POSITION                                       TOTAL-FORCE (eV/Angst)
 -----------------------------------------------------------------------------------
      0.00015      0.00001      1.37740        -0.030981     -0.000938     -0.018974
     18.91487     19.99053      1.37167         0.002936     -0.000054      0.006239
      0.55069     19.06568      1.37186         0.014168     -0.022769      0.006338
      0.53426      0.94380      1.37190         0.013877      0.023762      0.006397
 -----------------------------------------------------------------------------------
    total drift:                               -0.005745     -0.000065     -0.008199


--------------------------------------------------------------------------------------------------------



  FREE ENERGIE OF THE ION-ELECTRON SYSTEM (eV)
  ---------------------------------------------------
  free  energy   TOTEN  =       -18.18289200 eV

  energy  without entropy=      -18.18289200  energy(sigma->0) =      -18.18289200

 d Force = 0.3423424E-03[ 0.611E-05, 0.679E-03]  d Energy = 0.3546647E-03-0.123E-04
 d Force =-0.3934629E+00[-0.391E+00,-0.396E+00]  d Ewald  =-0.3934725E+00 0.963E-05


--------------------------------------------------------------------------------------------------------


    POTLOK:  cpu time   16.35: real time   16.35


--------------------------------------------------------------------------------------------------------


 stress matrix after NEB project (eV)
      0.00000      0.00000      0.00000
      0.00000      0.00000      0.00000
      0.00000      0.00000      0.00000
  FORCES: max atom, RMS     0.036342    0.027045
  FORCE total and by dimension    0.054090    0.030981
  Stress total and by dimension    0.000000    0.000000


--------------------------------------------------------------------------------------------------------


  
 reached required accuracy - stopping structural energy minimisation
     LOOP+:  cpu time  202.23: real time  202.28
    4ORBIT:  cpu time    0.00: real time    0.00

 total amount of memory used by VASP on root node   155239. kBytes
========================================================================

   base      :      30000. kBytes
   nonlr-proj:         43. kBytes
   fftplans  :      35092. kBytes
   grid      :      87488. kBytes
   one-center:          3. kBytes
   wavefun   :       2613. kBytes

  
  
 General timing and accounting informations for this job:
 ========================================================
  
                  Total CPU time used (sec):     4685.664
                            User time (sec):     4685.117
                          System time (sec):        0.547
                         Elapsed time (sec):     4687.795
  
                   Maximum memory used (kb):           0.
                   Average memory used (kb):           0.
  
                          Minor page faults:        73615
                          Major page faults:           47
                 Voluntary context switches:          173
