 vasp.5.4.1 24Jun15 (build Sep 07 2018 14:08:39) complex                        
  
 executed on INTEL-18.0.3+OPENMPI date 2018.11.14  14:20:25
 running on   36 total cores
 distrk:  each k-point on   36 cores,    1 groups
 distr:  one band on NCORES_PER_BAND=  36 cores,    1 groups


--------------------------------------------------------------------------------------------------------


 INCAR:
 POTCAR:    PAW H 06May1998                       
 POTCAR:    PAW O 22Mar2012                       

 ----------------------------------------------------------------------------- 
|                                                                             |
|           W    W    AA    RRRRR   N    N  II  N    N   GGGG   !!!           |
|           W    W   A  A   R    R  NN   N  II  NN   N  G    G  !!!           |
|           W    W  A    A  R    R  N N  N  II  N N  N  G       !!!           |
|           W WW W  AAAAAA  RRRRR   N  N N  II  N  N N  G  GGG   !            |
|           WW  WW  A    A  R   R   N   NN  II  N   NN  G    G                |
|           W    W  A    A  R    R  N    N  II  N    N   GGGG   !!!           |
|                                                                             |
|      For optimal performance we recommend to set                            |
|        NCORE= 4 - approx SQRT( number of cores)                             |
|      NCORE specifies how many cores store one orbital (NPAR=cpu/NCORE).     |
|      This setting can  greatly improve the performance of VASP for DFT.     |
|      The default, NPAR=number of cores might be grossly inefficient         |
|      on modern multi-core architectures or massively parallel machines.     |
|      Do your own testing !!!!                                               |
|      Unfortunately you need to use the default for GW and RPA calculations. |
|      (for HF NCORE is supported but not extensively tested yet)             |
|                                                                             |
 ----------------------------------------------------------------------------- 

 POTCAR:    PAW H 06May1998                       
   VRHFIN =H: ultrasoft test                                                    
   LEXCH  = CA                                                                  
   EATOM  =    12.1334 eV,    0.8918 Ry                                         
                                                                                
   TITEL  = PAW H 06May1998                                                     
   LULTRA =        F    use ultrasoft PP ?                                      
   IUNSCR =        0    unscreen: 0-lin 1-nonlin 2-no                           
   RPACOR =    0.000    partial core radius                                     
   POMASS =    1.000; ZVAL   =    1.000    mass and valenz                      
   RCORE  =    1.100    outmost cutoff radius                                   
   RWIGS  =    0.700; RWIGS  =    0.370    wigner-seitz radius (au A)           
   ENMAX  =  250.000; ENMIN  =  200.000 eV                                      
   RCLOC  =    0.701    cutoff for local pot                                    
   LCOR   =        T    correct aug charges                                     
   LPAW   =        T    paw PP                                                  
   EAUG   =  400.000                                                            
   RMAX   =    1.123    core radius for proj-oper                               
   RAUG   =    1.200    factor for augmentation sphere                          
   RDEP   =    1.112    radius for radial grids                                 
   RDEPT  =    0.926    core radius for aug-charge                              
                                                                                
   Atomic configuration                                                         
    2 entries                                                                   
     n  l   j            E        occ.                                          
     1  0  0.50        -6.3581   1.0000                                         
     2  1  0.50        -3.4015   0.0000                                         
   Description                                                                  
     l       E           TYP  RCUT    TYP  RCUT                                 
     0     -6.3581322     23  1.100                                             
     0      6.8029130     23  1.100                                             
     1     -4.0817478     23  1.100                                             
  local pseudopotential read in
  atomic valenz-charges read in
  non local Contribution for L=           0  read in
    real space projection operators read in
  non local Contribution for L=           0  read in
    real space projection operators read in
  non local Contribution for L=           1  read in
    real space projection operators read in
    PAW grid and wavefunctions read in
 
   number of l-projection  operators is LMAX  =           3
   number of lm-projection operators is LMMAX =           5
 
 POTCAR:    PAW O 22Mar2012                       
   VRHFIN =O: s2p4                                                              
   LEXCH  = CA                                                                  
   EATOM  =   431.4380 eV,   31.7098 Ry                                         
                                                                                
   TITEL  = PAW O 22Mar2012                                                     
   LULTRA =        F    use ultrasoft PP ?                                      
   IUNSCR =        1    unscreen: 0-lin 1-nonlin 2-no                           
   RPACOR =    1.200    partial core radius                                     
   POMASS =   16.000; ZVAL   =    6.000    mass and valenz                      
   RCORE  =    1.520    outmost cutoff radius                                   
   RWIGS  =    1.550; RWIGS  =    0.820    wigner-seitz radius (au A)           
   ENMAX  =  400.000; ENMIN  =  300.000 eV                                      
   ICORE  =        2    local potential                                         
   LCOR   =        T    correct aug charges                                     
   LPAW   =        T    paw PP                                                  
   EAUG   =  605.392                                                            
   DEXC   =    0.000                                                            
   RMAX   =    1.553    core radius for proj-oper                               
   RAUG   =    1.300    factor for augmentation sphere                          
   RDEP   =    1.550    radius for radial grids                                 
   RDEPT  =    1.329    core radius for aug-charge                              
                                                                                
   Atomic configuration                                                         
    4 entries                                                                   
     n  l   j            E        occ.                                          
     1  0  0.50      -510.4605   2.0000                                         
     2  0  0.50       -23.7367   2.0000                                         
     2  1  0.50        -9.1995   4.0000                                         
     3  2  1.50        -9.5241   0.0000                                         
   Description                                                                  
     l       E           TYP  RCUT    TYP  RCUT                                 
     0    -23.7366993     23  1.200                                             
     0     -9.5240782     23  1.200                                             
     1     -9.1994509     23  1.520                                             
     1      8.1634956     23  1.520                                             
     2     -9.5240782      7  1.500                                             
  local pseudopotential read in
  partial core-charges read in
  partial kinetic energy density read in
  kinetic energy density of atom read in
  atomic valenz-charges read in
  non local Contribution for L=           0  read in
    real space projection operators read in
  non local Contribution for L=           0  read in
    real space projection operators read in
  non local Contribution for L=           1  read in
    real space projection operators read in
  non local Contribution for L=           1  read in
    real space projection operators read in
    PAW grid and wavefunctions read in
 
   number of l-projection  operators is LMAX  =           4
   number of lm-projection operators is LMMAX =           8
 

 ----------------------------------------------------------------------------- 
|                                                                             |
|  ADVICE TO THIS USER RUNNING 'VASP/VAMP'   (HEAR YOUR MASTER'S VOICE ...):  |
|                                                                             |
|      You have a (more or less) 'small supercell' and for smaller cells      |
|      it is recommended  to use the reciprocal-space projection scheme!      |
|      The real space optimization is not  efficient for small cells and it   |
|      is also less accurate ...                                              |
|      Therefore set LREAL=.FALSE. in the  INCAR file                         |
|                                                                             |
 ----------------------------------------------------------------------------- 

 Optimization of the real space projectors (new method)

 maximal supplied QI-value         = 34.20
 optimisation between [QCUT,QGAM] = [  9.92, 20.18] = [ 27.55,114.04] Ry 
 Optimized for a Real-space Cutoff    1.34 Angstroem

   l    n(q)    QCUT    max X(q) W(low)/X(q) W(high)/X(q)  e(spline) 
   0      8     9.919    20.415    0.15E-03    0.19E-03    0.36E-06
   0      8     9.919    12.552    0.15E-03    0.19E-03    0.35E-06
   1      8     9.919     4.672    0.19E-03    0.46E-03    0.40E-06
 Optimization of the real space projectors (new method)

 maximal supplied QI-value         = 24.76
 optimisation between [QCUT,QGAM] = [ 10.15, 20.30] = [ 28.85,115.39] Ry 
 Optimized for a Real-space Cutoff    1.51 Angstroem

   l    n(q)    QCUT    max X(q) W(low)/X(q) W(high)/X(q)  e(spline) 
   0      9    10.150    20.659    0.17E-03    0.19E-03    0.41E-06
   0      9    10.150    15.633    0.18E-03    0.20E-03    0.43E-06
   1      9    10.150     5.864    0.16E-03    0.19E-03    0.37E-06
   1      9    10.150     5.285    0.13E-03    0.16E-03    0.34E-06
  PAW H 06May1998                       :
 energy of atom  1       EATOM=  -12.1334
 kinetic energy error for atom=    0.0088 (will be added to EATOM!!)
  PAW O 22Mar2012                       :
 energy of atom  2       EATOM= -431.4380
 kinetic energy error for atom=    0.1130 (will be added to EATOM!!)
 
 
 POSCAR:  H  O                                   
  positions in cartesian coordinates
  No initial velocities read in
 exchange correlation table for  LEXCH =        2
   RHO(1)=    0.500       N(1)  =     2000
   RHO(2)=  100.500       N(2)  =     4000

 VTST: version 3.2, (02/03/18)

 CHAIN: initializing optimizer
 
 OPT: Using VASP Dynamics algorithm
 CHAIN: Read ICHAIN            0
 
 POSCAR:  H  O                                   
  positions in cartesian coordinates
  No initial velocities read in
 


--------------------------------------------------------------------------------------------------------


 ion  position               nearest neighbor table
   1  0.462  0.496  0.500-   3 0.98
   2  0.538  0.482  0.500-   3 0.98
   3  0.505  0.518  0.500-   2 0.98   1 0.98
 

IMPORTANT INFORMATION: All symmetrisations will be switched off!
NOSYMM: (Re-)initialisation of all symmetry stuff for point group C_1.

 
 
 KPOINTS: KPOINTS created by Atomic Simulation Env

Automatic generation of k-mesh.
Space group operators:
 irot       det(A)        alpha          n_x          n_y          n_z        tau_x        tau_y        tau_z
    1     1.000000     0.000000     1.000000     0.000000     0.000000     0.000000     0.000000     0.000000
 
 Subroutine IBZKPT returns following result:
 ===========================================
 
 Found      1 irreducible k-points:
 
 Following reciprocal coordinates:
            Coordinates               Weight
  0.000000  0.000000  0.000000      1.000000
 
 Following cartesian coordinates:
            Coordinates               Weight
  0.000000  0.000000  0.000000      1.000000
 
 
 Subroutine IBZKPT_HF returns following result:
 ==============================================
 
 Found      1 k-points in 1st BZ
 the following      1 k-points will be used (e.g. in the exchange kernel)
 Following reciprocal coordinates:   # in IRBZ
  0.000000  0.000000  0.000000    1.00000000   1 t-inv F


--------------------------------------------------------------------------------------------------------




 Dimension of arrays:
   k-points           NKPTS =      1   k-points in BZ     NKDIM =      1   number of bands    NBANDS=      8
   number of dos      NEDOS =    301   number of ions     NIONS =      3
   non local maximal  LDIM  =      4   non local SUM 2l+1 LMDIM =      8
   total plane-waves  NPLWV = ******
   max r-space proj   IRMAX =   4982   max aug-charges    IRDMAX=   4649
   dimension x,y,z NGX =   140 NGY =  140 NGZ =  140
   dimension x,y,z NGXF=   280 NGYF=  280 NGZF=  280
   support grid    NGXF=   280 NGYF=  280 NGZF=  280
   ions per type =               2   1
 NGX,Y,Z   is equivalent  to a cutoff of  11.64, 11.64, 11.64 a.u.
 NGXF,Y,Z  is equivalent  to a cutoff of  23.27, 23.27, 23.27 a.u.


 I would recommend the setting:
   dimension x,y,z NGX =   130 NGY =  130 NGZ =  130
 SYSTEM =  unknown system                          
 POSCAR =   H  O                                   

 Startparameter for this run:
   NWRITE =      2    write-flag & timer
   PREC   = accura    normal or accurate (medium, high low for compatibility)
   ISTART =      0    job   : 0-new  1-cont  2-samecut
   ICHARG =      2    charge: 1-file 2-atom 10-const
   ISPIN  =      1    spin polarized calculation?
   LNONCOLLINEAR =      F non collinear calculations
   LSORBIT =      F    spin-orbit coupling
   INIWAV =      1    electr: 0-lowe 1-rand  2-diag
   LASPH  =      F    aspherical Exc in radial PAW
   METAGGA=      F    non-selfconsistent MetaGGA calc.

 Electronic Relaxation 1
   ENCUT  =  400.0 eV  29.40 Ry    5.42 a.u.  32.61 32.61 32.61*2*pi/ulx,y,z
   ENINI  =  400.0     initial cutoff
   ENAUG  =  605.4 eV  augmentation charge cutoff
   NELM   =    400;   NELMIN=  2; NELMDL=-10     # of ELM steps 
   EDIFF  = 0.1E-07   stopping-criterion for ELM
   LREAL  =      T    real-space projection
   NLSPLINE    = F    spline interpolate recip. space projectors
   LCOMPAT=      F    compatible to vasp.4.4
   GGA_COMPAT  = T    GGA compatible to vasp.4.4-vasp.4.6
   LMAXPAW     = -100 max onsite density
   LMAXMIX     =    2 max onsite mixed and CHGCAR
   VOSKOWN=      0    Vosko Wilk Nusair interpolation
   ROPT   =   -0.00025  -0.00025
 Ionic relaxation
   EDIFFG = -.1E-01   stopping-criterion for IOM
   NSW    =     73    number of steps for IOM
   NBLOCK =      1;   KBLOCK =      1    inner block; outer block 
   IBRION =      5    ionic relax: 0-MD 1-quasi-New 2-CG
   NFREE  =      2    steps in history (QN), initial steepest desc. (CG)
   ISIF   =      2    stress and relaxation
   IWAVPR =     11    prediction:  0-non 1-charg 2-wave 3-comb
   ISYM   =      0    0-nonsym 1-usesym 2-fastsym
   LCORR  =      T    Harris-Foulkes like correction to forces

   POTIM  = 0.0150    time-step for ionic-motion
   TEIN   =    0.0    initial temperature
   TEBEG  =    0.0;   TEEND  =   0.0 temperature during run
   SMASS  =  -3.00    Nose mass-parameter (am)
   estimated Nose-frequenzy (Omega)   =  0.10E-29 period in steps =****** mass=  -0.914E-26a.u.
   SCALEE = 1.0000    scale energy and forces
   NPACO  =    256;   APACO  = 16.0  distance and # of slots for P.C.
   PSTRESS=    0.0 pullay stress

  Mass of Ions in am
   POMASS =   1.00 16.00
  Ionic Valenz
   ZVAL   =   1.00  6.00
  Atomic Wigner-Seitz radii
   RWIGS  =  -1.00 -1.00
  virtual crystal weights 
   VCA    =   1.00  1.00
   NELECT =       8.0000    total number of electrons
   NUPDOWN=      -1.0000    fix difference up-down

 DOS related values:
   EMIN   =  10.00;   EMAX   =-10.00  energy-range for DOS
   EFERMI =   0.00
   ISMEAR =     0;   SIGMA  =   0.10  broadening in eV -4-tet -1-fermi 0-gaus

 Electronic relaxation 2 (details)
   IALGO  =     68    algorithm
   LDIAG  =      T    sub-space diagonalisation (order eigenvalues)
   LSUBROT=      F    optimize rotation matrix (better conditioning)
   TURBO    =      0    0=normal 1=particle mesh
   IRESTART =      0    0=no restart 2=restart with 2 vectors
   NREBOOT  =      0    no. of reboots
   NMIN     =      0    reboot dimension
   EREF     =   0.00    reference energy to select bands
   IMIX   =      4    mixing-type and parameters
     AMIX     =   0.40;   BMIX     =  1.00
     AMIX_MAG =   1.60;   BMIX_MAG =  1.00
     AMIN     =   0.10
     WC   =   100.;   INIMIX=   1;  MIXPRE=   1;  MAXMIX= -45

 Intra band minimization:
   WEIMIN = 0.0010     energy-eigenvalue tresh-hold
   EBREAK =  0.31E-09  absolut break condition
   DEPER  =   0.30     relativ break condition  

   TIME   =   0.40     timestep for ELM

  volume/ion in A,a.u.               =    2666.67     17995.55
  Fermi-wavevector in a.u.,A,eV,Ry     =   0.163710  0.309367  0.364649  0.026801
  Thomas-Fermi vector in A             =   0.862763
 
 Write flags
   LWAVE  =      F    write WAVECAR
   LCHARG =      F    write CHGCAR
   LVTOT  =      F    write LOCPOT, total local potential
   LVHAR  =      F    write LOCPOT, Hartree potential only
   LELF   =      F    write electronic localiz. function (ELF)
   LORBIT =      0    0 simple, 1 ext, 2 COOP (PROOUT)


 Dipole corrections
   LMONO  =      F    monopole corrections only (constant potential shift)
   LDIPOL =      F    correct potential (dipole corrections)
   IDIPOL =      0    1-x, 2-y, 3-z, 4-all directions 
   EPSILON=  1.0000000 bulk dielectric constant

 Exchange correlation treatment:
   GGA     =    --    GGA type
   LEXCH   =     2    internal setting for exchange type
   VOSKOWN=      0    Vosko Wilk Nusair interpolation
   LHFCALC =     F    Hartree Fock is set to
   LHFONE  =     F    Hartree Fock one center treatment
   AEXX    =    0.0000 exact exchange contribution

 Linear response parameters
   LEPSILON=     F    determine dielectric tensor
   LRPA    =     F    only Hartree local field effects (RPA)
   LNABLA  =     F    use nabla operator in PAW spheres
   LVEL    =     F    velocity operator in full k-point grid
   LINTERFAST=   F  fast interpolation
   KINTER  =     0    interpolate to denser k-point grid
   CSHIFT  =0.1000    complex shift for real part using Kramers Kronig
   OMEGAMAX=  -1.0    maximum frequency
   DEG_THRESHOLD= 0.2000000E-02 threshold for treating states as degnerate
   RTIME   =    0.100 relaxation time in fs

 Orbital magnetization related:
   ORBITALMAG=     F  switch on orbital magnetization
   LCHIMAG   =     F  perturbation theory with respect to B field
   DQ        =  0.001000  dq finite difference perturbation B field



--------------------------------------------------------------------------------------------------------


 finite differences
   using selective dynamics as specified on POSCAR
   WARNING: If single coordinates had been selected the selection of coordinates
            is made according to the corresponding   d i r e c t   coordinates!
            Don't support selection of single cartesian coordinates -- sorry ...
  !
 charge density and potential will be updated during run
 non-spin polarized calculation
 RMM-DIIS sequential band-by-band and
  variant of blocked Davidson during initial phase
 perform sub-space diagonalisation
    before iterative eigenvector-optimisation
 modified Broyden-mixing scheme, WC =      100.0
 initial mixing is a Kerker type mixing with AMIX =  0.4000 and BMIX =      1.0000
 Hartree-type preconditioning will be used
 using additional bands            4
 real space projection scheme for non local part
 use partial core corrections
 calculate Harris-corrections to forces 
   (improved forces if not selfconsistent)
 use of overlap-Matrix (Vanderbilt PP)
 Gauss-broadening in eV      SIGMA  =   0.10


--------------------------------------------------------------------------------------------------------


  energy-cutoff  :      400.00
  volume of cell :     8000.00
      direct lattice vectors                 reciprocal lattice vectors
    20.000000000  0.000000000  0.000000000     0.050000000  0.000000000  0.000000000
     0.000000000 20.000000000  0.000000000     0.000000000  0.050000000  0.000000000
     0.000000000  0.000000000 20.000000000     0.000000000  0.000000000  0.050000000

  length of vectors
    20.000000000 20.000000000 20.000000000     0.050000000  0.050000000  0.050000000


 
 k-points in units of 2pi/SCALE and weight: KPOINTS created by Atomic Simulation Env
   0.00000000  0.00000000  0.00000000       1.000
 
 k-points in reciprocal lattice and weights: KPOINTS created by Atomic Simulation Env
   0.00000000  0.00000000  0.00000000       1.000
 
 position of ions in fractional coordinates (direct lattice) 
   0.46188719  0.49567599  0.50000000
   0.53815258  0.48186943  0.50000000
   0.50529023  0.51788207  0.50000000
 
 position of ions in cartesian coordinates  (Angst):
   9.23774378  9.91351989 10.00000000
  10.76305163  9.63738870 10.00000000
  10.10580460 10.35764136 10.00000000
 


--------------------------------------------------------------------------------------------------------


 k-point  1 :   0.0000 0.0000 0.0000  plane waves:  145165

 maximum and minimum number of plane-waves per node :      4037     4026

 maximum number of plane-waves:    145165
 maximum index in each direction: 
   IXMAX=   32   IYMAX=   32   IZMAX=   32
   IXMIN=  -32   IYMIN=  -32   IZMIN=  -32

 NGX is ok and might be reduce to 130
 NGY is ok and might be reduce to 130
 NGZ is ok and might be reduce to 130

 real space projection operators:
  total allocation   :        561.79 KBytes
  max/ min on nodes  :         35.76          0.00


 parallel 3D FFT for wavefunctions:
    minimum data exchange during FFTs selected (reduces bandwidth)
 parallel 3D FFT for charge:
    minimum data exchange during FFTs selected (reduces bandwidth)


 total amount of memory used by VASP on root node    92593. kBytes
========================================================================

   base      :      30000. kBytes
   nonlr-proj:        294. kBytes
   fftplans  :      23332. kBytes
   grid      :      38447. kBytes
   one-center:          3. kBytes
   wavefun   :        517. kBytes
 
     INWAV:  cpu time    0.0000: real time    0.0000
 Broyden mixing: mesh for mixing (old mesh)
   NGX = 65   NGY = 65   NGZ = 65
  (NGX  =280   NGY  =280   NGZ  =280)
  gives a total of 274625 points

 initial charge density was supplied:
 charge density of overlapping atoms calculated
 number of electron       8.0000000 magnetization 
 keeping initial charge density in first step


--------------------------------------------------------------------------------------------------------


 Maximum index for non-local projection operator          340
 Maximum index for augmentation-charges          293 (set IRDMAX)


--------------------------------------------------------------------------------------------------------


 First call to EWALD:  gamma=   0.089
 Maximum number of real-space cells 3x 3x 3
 Maximum number of reciprocal cells 3x 3x 3

 FEWALD executed in parallel
    FEWALD:  cpu time    0.0014: real time    0.0026


----------------------------------------- Iteration    1(   1)  ---------------------------------------


    POTLOK:  cpu time    0.2143: real time    0.2143
    SETDIJ:  cpu time    0.0015: real time    0.0015
     EDDAV:  cpu time    0.3079: real time    0.3080
       DOS:  cpu time    0.0001: real time    0.0001
    --------------------------------------------
      LOOP:  cpu time    0.5258: real time    0.5274

 eigenvalue-minimisations  :    32
 total energy-change (2. order) : 0.5657110E+02  (-0.1321889E+03)
 number of electron       8.0000000 magnetization 
 augmentation part        8.0000000 magnetization 

 Free energy of the ion-electron system (eV)
  ---------------------------------------------------
  alpha Z        PSCENC =         0.02750671
  Ewald energy   TEWEN  =       121.18733032
  -Hartree energ DENC   =      -478.09012152
  -exchange      EXHF   =         0.00000000
  -V(xc)+E(xc)   XCENC  =        32.65753719
  PAW double counting   =       349.41539262     -351.43018705
  entropy T*S    EENTRO =        -0.00005366
  eigenvalues    EBANDS =       -72.77050922
  atomic energy  EATOM  =       455.57420825
  Solvation  Ediel_sol  =         0.00000000
  ---------------------------------------------------
  free energy    TOTEN  =        56.57110364 eV

  energy without entropy =       56.57115730  energy(sigma->0) =       56.57113047


--------------------------------------------------------------------------------------------------------




----------------------------------------- Iteration    1(   2)  ---------------------------------------


     EDDAV:  cpu time    0.2342: real time    0.2342
       DOS:  cpu time    0.0000: real time    0.0000
    --------------------------------------------
      LOOP:  cpu time    0.2350: real time    0.2358

 eigenvalue-minimisations  :    24
 total energy-change (2. order) :-0.5232242E+02  (-0.5232227E+02)
 number of electron       8.0000000 magnetization 
 augmentation part        8.0000000 magnetization 

 Free energy of the ion-electron system (eV)
  ---------------------------------------------------
  alpha Z        PSCENC =         0.02750671
  Ewald energy   TEWEN  =       121.18733032
  -Hartree energ DENC   =      -478.09012152
  -exchange      EXHF   =         0.00000000
  -V(xc)+E(xc)   XCENC  =        32.65753719
  PAW double counting   =       349.41539262     -351.43018705
  entropy T*S    EENTRO =        -0.00000000
  eigenvalues    EBANDS =      -125.09298115
  atomic energy  EATOM  =       455.57420825
  Solvation  Ediel_sol  =         0.00000000
  ---------------------------------------------------
  free energy    TOTEN  =         4.24868537 eV

  energy without entropy =        4.24868537  energy(sigma->0) =        4.24868537


--------------------------------------------------------------------------------------------------------




----------------------------------------- Iteration    1(   3)  ---------------------------------------


     EDDAV:  cpu time    0.1677: real time    0.1680
       DOS:  cpu time    0.0000: real time    0.0000
    --------------------------------------------
      LOOP:  cpu time    0.1684: real time    0.1698

 eigenvalue-minimisations  :    16
 total energy-change (2. order) :-0.1826729E+02  (-0.1826729E+02)
 number of electron       8.0000000 magnetization 
 augmentation part        8.0000000 magnetization 

 Free energy of the ion-electron system (eV)
  ---------------------------------------------------
  alpha Z        PSCENC =         0.02750671
  Ewald energy   TEWEN  =       121.18733032
  -Hartree energ DENC   =      -478.09012152
  -exchange      EXHF   =         0.00000000
  -V(xc)+E(xc)   XCENC  =        32.65753719
  PAW double counting   =       349.41539262     -351.43018705
  entropy T*S    EENTRO =        -0.00000000
  eigenvalues    EBANDS =      -143.36027377
  atomic energy  EATOM  =       455.57420825
  Solvation  Ediel_sol  =         0.00000000
  ---------------------------------------------------
  free energy    TOTEN  =       -14.01860725 eV

  energy without entropy =      -14.01860725  energy(sigma->0) =      -14.01860725


--------------------------------------------------------------------------------------------------------




----------------------------------------- Iteration    1(   4)  ---------------------------------------


     EDDAV:  cpu time    0.1684: real time    0.1686
       DOS:  cpu time    0.0000: real time    0.0000
    --------------------------------------------
      LOOP:  cpu time    0.1689: real time    0.1701

 eigenvalue-minimisations  :    16
 total energy-change (2. order) :-0.3016119E+01  (-0.3016119E+01)
 number of electron       8.0000000 magnetization 
 augmentation part        8.0000000 magnetization 

 Free energy of the ion-electron system (eV)
  ---------------------------------------------------
  alpha Z        PSCENC =         0.02750671
  Ewald energy   TEWEN  =       121.18733032
  -Hartree energ DENC   =      -478.09012152
  -exchange      EXHF   =         0.00000000
  -V(xc)+E(xc)   XCENC  =        32.65753719
  PAW double counting   =       349.41539262     -351.43018705
  entropy T*S    EENTRO =        -0.00000000
  eigenvalues    EBANDS =      -146.37639266
  atomic energy  EATOM  =       455.57420825
  Solvation  Ediel_sol  =         0.00000000
  ---------------------------------------------------
  free energy    TOTEN  =       -17.03472614 eV

  energy without entropy =      -17.03472614  energy(sigma->0) =      -17.03472614


--------------------------------------------------------------------------------------------------------




----------------------------------------- Iteration    1(   5)  ---------------------------------------


     EDDAV:  cpu time    0.2923: real time    0.2925
       DOS:  cpu time    0.0000: real time    0.0000
    --------------------------------------------
      LOOP:  cpu time    0.2927: real time    0.2939

 eigenvalue-minimisations  :    32
 total energy-change (2. order) :-0.2996957E-01  (-0.2996957E-01)
 number of electron       8.0000000 magnetization 
 augmentation part        8.0000000 magnetization 

 Free energy of the ion-electron system (eV)
  ---------------------------------------------------
  alpha Z        PSCENC =         0.02750671
  Ewald energy   TEWEN  =       121.18733032
  -Hartree energ DENC   =      -478.09012152
  -exchange      EXHF   =         0.00000000
  -V(xc)+E(xc)   XCENC  =        32.65753719
  PAW double counting   =       349.41539262     -351.43018705
  entropy T*S    EENTRO =        -0.00000000
  eigenvalues    EBANDS =      -146.40636223
  atomic energy  EATOM  =       455.57420825
  Solvation  Ediel_sol  =         0.00000000
  ---------------------------------------------------
  free energy    TOTEN  =       -17.06469571 eV

  energy without entropy =      -17.06469571  energy(sigma->0) =      -17.06469571


--------------------------------------------------------------------------------------------------------




----------------------------------------- Iteration    1(   6)  ---------------------------------------


     EDDAV:  cpu time    0.2297: real time    0.2298
       DOS:  cpu time    0.0000: real time    0.0000
    --------------------------------------------
      LOOP:  cpu time    0.2301: real time    0.2311

 eigenvalue-minimisations  :    24
 total energy-change (2. order) :-0.9830637E-05  (-0.9830638E-05)
 number of electron       8.0000000 magnetization 
 augmentation part        8.0000000 magnetization 

 Free energy of the ion-electron system (eV)
  ---------------------------------------------------
  alpha Z        PSCENC =         0.02750671
  Ewald energy   TEWEN  =       121.18733032
  -Hartree energ DENC   =      -478.09012152
  -exchange      EXHF   =         0.00000000
  -V(xc)+E(xc)   XCENC  =        32.65753719
  PAW double counting   =       349.41539262     -351.43018705
  entropy T*S    EENTRO =        -0.00000000
  eigenvalues    EBANDS =      -146.40637206
  atomic energy  EATOM  =       455.57420825
  Solvation  Ediel_sol  =         0.00000000
  ---------------------------------------------------
  free energy    TOTEN  =       -17.06470554 eV

  energy without entropy =      -17.06470554  energy(sigma->0) =      -17.06470554


--------------------------------------------------------------------------------------------------------




----------------------------------------- Iteration    1(   7)  ---------------------------------------


     EDDAV:  cpu time    0.2917: real time    0.2919
       DOS:  cpu time    0.0000: real time    0.0000
    --------------------------------------------
      LOOP:  cpu time    0.2921: real time    0.2934

 eigenvalue-minimisations  :    32
 total energy-change (2. order) :-0.2391312E-07  (-0.2391487E-07)
 number of electron       8.0000000 magnetization 
 augmentation part        8.0000000 magnetization 

 Free energy of the ion-electron system (eV)
  ---------------------------------------------------
  alpha Z        PSCENC =         0.02750671
  Ewald energy   TEWEN  =       121.18733032
  -Hartree energ DENC   =      -478.09012152
  -exchange      EXHF   =         0.00000000
  -V(xc)+E(xc)   XCENC  =        32.65753719
  PAW double counting   =       349.41539262     -351.43018705
  entropy T*S    EENTRO =        -0.00000000
  eigenvalues    EBANDS =      -146.40637208
  atomic energy  EATOM  =       455.57420825
  Solvation  Ediel_sol  =         0.00000000
  ---------------------------------------------------
  free energy    TOTEN  =       -17.06470556 eV

  energy without entropy =      -17.06470556  energy(sigma->0) =      -17.06470556


--------------------------------------------------------------------------------------------------------




----------------------------------------- Iteration    1(   8)  ---------------------------------------


     EDDAV:  cpu time    0.2910: real time    0.2911
       DOS:  cpu time    0.0000: real time    0.0000
    --------------------------------------------
      LOOP:  cpu time    0.2914: real time    0.2925

 eigenvalue-minimisations  :    32
 total energy-change (2. order) :-0.4774847E-11  (-0.6345147E-11)
 number of electron       8.0000000 magnetization 
 augmentation part        8.0000000 magnetization 

 Free energy of the ion-electron system (eV)
  ---------------------------------------------------
  alpha Z        PSCENC =         0.02750671
  Ewald energy   TEWEN  =       121.18733032
  -Hartree energ DENC   =      -478.09012152
  -exchange      EXHF   =         0.00000000
  -V(xc)+E(xc)   XCENC  =        32.65753719
  PAW double counting   =       349.41539262     -351.43018705
  entropy T*S    EENTRO =        -0.00000000
  eigenvalues    EBANDS =      -146.40637208
  atomic energy  EATOM  =       455.57420825
  Solvation  Ediel_sol  =         0.00000000
  ---------------------------------------------------
  free energy    TOTEN  =       -17.06470556 eV

  energy without entropy =      -17.06470556  energy(sigma->0) =      -17.06470556


--------------------------------------------------------------------------------------------------------




----------------------------------------- Iteration    1(   9)  ---------------------------------------


     EDDAV:  cpu time    0.2903: real time    0.2906
       DOS:  cpu time    0.0000: real time    0.0000
    --------------------------------------------
      LOOP:  cpu time    0.2907: real time    0.2921

 eigenvalue-minimisations  :    32
 total energy-change (2. order) :-0.2273737E-12  (-0.1357137E-11)
 number of electron       8.0000000 magnetization 
 augmentation part        8.0000000 magnetization 

 Free energy of the ion-electron system (eV)
  ---------------------------------------------------
  alpha Z        PSCENC =         0.02750671
  Ewald energy   TEWEN  =       121.18733032
  -Hartree energ DENC   =      -478.09012152
  -exchange      EXHF   =         0.00000000
  -V(xc)+E(xc)   XCENC  =        32.65753719
  PAW double counting   =       349.41539262     -351.43018705
  entropy T*S    EENTRO =        -0.00000000
  eigenvalues    EBANDS =      -146.40637208
  atomic energy  EATOM  =       455.57420825
  Solvation  Ediel_sol  =         0.00000000
  ---------------------------------------------------
  free energy    TOTEN  =       -17.06470556 eV

  energy without entropy =      -17.06470556  energy(sigma->0) =      -17.06470556


--------------------------------------------------------------------------------------------------------




----------------------------------------- Iteration    1(  10)  ---------------------------------------


     EDDAV:  cpu time    0.2902: real time    0.2904
       DOS:  cpu time    0.0000: real time    0.0000
    CHARGE:  cpu time    0.0646: real time    0.0646
    MIXING:  cpu time    0.0203: real time    0.0205
    --------------------------------------------
      LOOP:  cpu time    0.3756: real time    0.3772

 eigenvalue-minimisations  :    32
 total energy-change (2. order) : 0.0000000E+00  (-0.1254108E-11)
 number of electron       8.0000006 magnetization 
 augmentation part        0.8628261 magnetization 

 Broyden mixing:
  rms(total) = 0.80917E+00    rms(broyden)= 0.80720E+00
  rms(prec ) = 0.88727E+00
  weight for this iteration     100.00

 Free energy of the ion-electron system (eV)
  ---------------------------------------------------
  alpha Z        PSCENC =         0.02750671
  Ewald energy   TEWEN  =       121.18733032
  -Hartree energ DENC   =      -478.09012152
  -exchange      EXHF   =         0.00000000
  -V(xc)+E(xc)   XCENC  =        32.65753719
  PAW double counting   =       349.41539262     -351.43018705
  entropy T*S    EENTRO =        -0.00000000
  eigenvalues    EBANDS =      -146.40637208
  atomic energy  EATOM  =       455.57420825
  Solvation  Ediel_sol  =         0.00000000
  ---------------------------------------------------
  free energy    TOTEN  =       -17.06470556 eV

  energy without entropy =      -17.06470556  energy(sigma->0) =      -17.06470556


--------------------------------------------------------------------------------------------------------




----------------------------------------- Iteration    1(  11)  ---------------------------------------


    POTLOK:  cpu time    0.2110: real time    0.2111
    SETDIJ:  cpu time    0.0028: real time    0.0028
    EDDIAG:  cpu time    0.0442: real time    0.0453
  RMM-DIIS:  cpu time    0.1511: real time    0.1512
    ORTHCH:  cpu time    0.0008: real time    0.0008
       DOS:  cpu time    0.0000: real time    0.0000
    CHARGE:  cpu time    0.0630: real time    0.0631
    MIXING:  cpu time    0.0193: real time    0.0193
    --------------------------------------------
      LOOP:  cpu time    0.4933: real time    0.4961

 eigenvalue-minimisations  :    16
 total energy-change (2. order) : 0.2056997E+01  (-0.7728522E+00)
 number of electron       8.0000006 magnetization 
 augmentation part        0.7328474 magnetization 

 Broyden mixing:
  rms(total) = 0.31741E+00    rms(broyden)= 0.31689E+00
  rms(prec ) = 0.33584E+00
  weight for this iteration     100.00

 eigenvalues of (default mixing * dielectric matrix)
  average eigenvalue GAMMA=   0.9633
  0.9633

 Free energy of the ion-electron system (eV)
  ---------------------------------------------------
  alpha Z        PSCENC =         0.02750671
  Ewald energy   TEWEN  =       121.18733032
  -Hartree energ DENC   =      -502.94682494
  -exchange      EXHF   =         0.00000000
  -V(xc)+E(xc)   XCENC  =        34.07631177
  PAW double counting   =       450.63273979     -453.07127994
  entropy T*S    EENTRO =        -0.00000000
  eigenvalues    EBANDS =      -120.48770092
  atomic energy  EATOM  =       455.57420825
  Solvation  Ediel_sol  =         0.00000000
  ---------------------------------------------------
  free energy    TOTEN  =       -15.00770896 eV

  energy without entropy =      -15.00770896  energy(sigma->0) =      -15.00770896


--------------------------------------------------------------------------------------------------------




----------------------------------------- Iteration    1(  12)  ---------------------------------------


    POTLOK:  cpu time    0.2110: real time    0.2115
    SETDIJ:  cpu time    0.0013: real time    0.0013
    EDDIAG:  cpu time    0.0375: real time    0.0375
  RMM-DIIS:  cpu time    0.1540: real time    0.1541
    ORTHCH:  cpu time    0.0004: real time    0.0004
       DOS:  cpu time    0.0000: real time    0.0000
    CHARGE:  cpu time    0.0616: real time    0.0616
    MIXING:  cpu time    0.0192: real time    0.0192
    --------------------------------------------
      LOOP:  cpu time    0.4858: real time    0.4877

 eigenvalue-minimisations  :    17
 total energy-change (2. order) : 0.1200300E+00  (-0.4128879E-01)
 number of electron       8.0000006 magnetization 
 augmentation part        0.7115610 magnetization 

 Broyden mixing:
  rms(total) = 0.21450E+00    rms(broyden)= 0.21445E+00
  rms(prec ) = 0.22556E+00
  weight for this iteration     100.00

 eigenvalues of (default mixing * dielectric matrix)
  average eigenvalue GAMMA=   1.6718
  1.2133  2.1303

 Free energy of the ion-electron system (eV)
  ---------------------------------------------------
  alpha Z        PSCENC =         0.02750671
  Ewald energy   TEWEN  =       121.18733032
  -Hartree energ DENC   =      -507.74419187
  -exchange      EXHF   =         0.00000000
  -V(xc)+E(xc)   XCENC  =        34.32018759
  PAW double counting   =       499.90823403     -502.31238025
  entropy T*S    EENTRO =        -0.00000000
  eigenvalues    EBANDS =      -115.84857373
  atomic energy  EATOM  =       455.57420825
  Solvation  Ediel_sol  =         0.00000000
  ---------------------------------------------------
  free energy    TOTEN  =       -14.88767895 eV

  energy without entropy =      -14.88767895  energy(sigma->0) =      -14.88767895


--------------------------------------------------------------------------------------------------------




----------------------------------------- Iteration    1(  13)  ---------------------------------------


    POTLOK:  cpu time    0.2103: real time    0.2104
    SETDIJ:  cpu time    0.0011: real time    0.0011
    EDDIAG:  cpu time    0.0373: real time    0.0373
  RMM-DIIS:  cpu time    0.1451: real time    0.1451
    ORTHCH:  cpu time    0.0004: real time    0.0004
       DOS:  cpu time    0.0000: real time    0.0000
    CHARGE:  cpu time    0.0612: real time    0.0612
    MIXING:  cpu time    0.0193: real time    0.0194
    --------------------------------------------
      LOOP:  cpu time    0.4755: real time    0.4767

 eigenvalue-minimisations  :    16
 total energy-change (2. order) : 0.6826483E-01  (-0.1905099E-01)
 number of electron       8.0000006 magnetization 
 augmentation part        0.7255352 magnetization 

 Broyden mixing:
  rms(total) = 0.63674E-01    rms(broyden)= 0.63646E-01
  rms(prec ) = 0.73664E-01
  weight for this iteration     100.00

 eigenvalues of (default mixing * dielectric matrix)
  average eigenvalue GAMMA=   1.5065
  2.4368  1.0414  1.0414

 Free energy of the ion-electron system (eV)
  ---------------------------------------------------
  alpha Z        PSCENC =         0.02750671
  Ewald energy   TEWEN  =       121.18733032
  -Hartree energ DENC   =      -509.89789969
  -exchange      EXHF   =         0.00000000
  -V(xc)+E(xc)   XCENC  =        34.39828948
  PAW double counting   =       557.18455465     -559.44549472
  entropy T*S    EENTRO =        -0.00000000
  eigenvalues    EBANDS =      -113.84790911
  atomic energy  EATOM  =       455.57420825
  Solvation  Ediel_sol  =         0.00000000
  ---------------------------------------------------
  free energy    TOTEN  =       -14.81941412 eV

  energy without entropy =      -14.81941412  energy(sigma->0) =      -14.81941412


--------------------------------------------------------------------------------------------------------




----------------------------------------- Iteration    1(  14)  ---------------------------------------


    POTLOK:  cpu time    0.2098: real time    0.2100
    SETDIJ:  cpu time    0.0010: real time    0.0010
    EDDIAG:  cpu time    0.0369: real time    0.0369
  RMM-DIIS:  cpu time    0.1455: real time    0.1455
    ORTHCH:  cpu time    0.0004: real time    0.0004
       DOS:  cpu time    0.0000: real time    0.0000
    CHARGE:  cpu time    0.0616: real time    0.0617
    MIXING:  cpu time    0.0196: real time    0.0197
    --------------------------------------------
      LOOP:  cpu time    0.4756: real time    0.4771

 eigenvalue-minimisations  :    16
 total energy-change (2. order) : 0.1549745E-01  (-0.7158979E-02)
 number of electron       8.0000006 magnetization 
 augmentation part        0.7144388 magnetization 

 Broyden mixing:
  rms(total) = 0.15247E-01    rms(broyden)= 0.15203E-01
  rms(prec ) = 0.23204E-01
  weight for this iteration     100.00

 eigenvalues of (default mixing * dielectric matrix)
  average eigenvalue GAMMA=   1.9319
  2.8452  2.8452  1.0186  1.0186

 Free energy of the ion-electron system (eV)
  ---------------------------------------------------
  alpha Z        PSCENC =         0.02750671
  Ewald energy   TEWEN  =       121.18733032
  -Hartree energ DENC   =      -512.86383647
  -exchange      EXHF   =         0.00000000
  -V(xc)+E(xc)   XCENC  =        34.55491287
  PAW double counting   =       567.04241853     -569.33728532
  entropy T*S    EENTRO =        -0.00000000
  eigenvalues    EBANDS =      -110.98917156
  atomic energy  EATOM  =       455.57420825
  Solvation  Ediel_sol  =         0.00000000
  ---------------------------------------------------
  free energy    TOTEN  =       -14.80391667 eV

  energy without entropy =      -14.80391667  energy(sigma->0) =      -14.80391667


--------------------------------------------------------------------------------------------------------




----------------------------------------- Iteration    1(  15)  ---------------------------------------


    POTLOK:  cpu time    0.2099: real time    0.2099
    SETDIJ:  cpu time    0.0010: real time    0.0010
    EDDIAG:  cpu time    0.0370: real time    0.0370
  RMM-DIIS:  cpu time    0.1457: real time    0.1457
    ORTHCH:  cpu time    0.0004: real time    0.0004
       DOS:  cpu time    0.0000: real time    0.0000
    CHARGE:  cpu time    0.0610: real time    0.0611
    MIXING:  cpu time    0.0205: real time    0.0205
    --------------------------------------------
      LOOP:  cpu time    0.4763: real time    0.4775

 eigenvalue-minimisations  :    16
 total energy-change (2. order) :-0.1275917E-01  (-0.3270776E-02)
 number of electron       8.0000006 magnetization 
 augmentation part        0.7085021 magnetization 

 Broyden mixing:
  rms(total) = 0.30363E-01    rms(broyden)= 0.30350E-01
  rms(prec ) = 0.33101E-01
  weight for this iteration     100.00

 eigenvalues of (default mixing * dielectric matrix)
  average eigenvalue GAMMA=   1.7346
  3.1937  2.4312  1.0227  1.0227  1.0027

 Free energy of the ion-electron system (eV)
  ---------------------------------------------------
  alpha Z        PSCENC =         0.02750671
  Ewald energy   TEWEN  =       121.18733032
  -Hartree energ DENC   =      -514.53569127
  -exchange      EXHF   =         0.00000000
  -V(xc)+E(xc)   XCENC  =        34.60851063
  PAW double counting   =       557.51807866     -559.82421306
  entropy T*S    EENTRO =        -0.00000000
  eigenvalues    EBANDS =      -109.37240606
  atomic energy  EATOM  =       455.57420825
  Solvation  Ediel_sol  =         0.00000000
  ---------------------------------------------------
  free energy    TOTEN  =       -14.81667584 eV

  energy without entropy =      -14.81667584  energy(sigma->0) =      -14.81667584


--------------------------------------------------------------------------------------------------------




----------------------------------------- Iteration    1(  16)  ---------------------------------------


    POTLOK:  cpu time    0.2092: real time    0.2096
    SETDIJ:  cpu time    0.0011: real time    0.0011
    EDDIAG:  cpu time    0.0369: real time    0.0369
  RMM-DIIS:  cpu time    0.1458: real time    0.1458
    ORTHCH:  cpu time    0.0004: real time    0.0004
       DOS:  cpu time    0.0000: real time    0.0000
    CHARGE:  cpu time    0.0616: real time    0.0616
    MIXING:  cpu time    0.0201: real time    0.0201
    --------------------------------------------
      LOOP:  cpu time    0.4759: real time    0.4777

 eigenvalue-minimisations  :    16
 total energy-change (2. order) :-0.1892908E-03  (-0.8739448E-03)
 number of electron       8.0000006 magnetization 
 augmentation part        0.7118863 magnetization 

 Broyden mixing:
  rms(total) = 0.45313E-02    rms(broyden)= 0.45168E-02
  rms(prec ) = 0.79317E-02
  weight for this iteration     100.00

 eigenvalues of (default mixing * dielectric matrix)
  average eigenvalue GAMMA=   2.1046
  3.8931  3.1833  2.4683  1.0611  1.0611  0.9607

 Free energy of the ion-electron system (eV)
  ---------------------------------------------------
  alpha Z        PSCENC =         0.02750671
  Ewald energy   TEWEN  =       121.18733032
  -Hartree energ DENC   =      -513.96961838
  -exchange      EXHF   =         0.00000000
  -V(xc)+E(xc)   XCENC  =        34.57058649
  PAW double counting   =       558.98872381     -561.27465113
  entropy T*S    EENTRO =        -0.00000000
  eigenvalues    EBANDS =      -109.92095121
  atomic energy  EATOM  =       455.57420825
  Solvation  Ediel_sol  =         0.00000000
  ---------------------------------------------------
  free energy    TOTEN  =       -14.81686513 eV

  energy without entropy =      -14.81686513  energy(sigma->0) =      -14.81686513


--------------------------------------------------------------------------------------------------------




----------------------------------------- Iteration    1(  17)  ---------------------------------------


    POTLOK:  cpu time    0.2099: real time    0.2099
    SETDIJ:  cpu time    0.0010: real time    0.0010
    EDDIAG:  cpu time    0.0368: real time    0.0368
  RMM-DIIS:  cpu time    0.1459: real time    0.1460
    ORTHCH:  cpu time    0.0004: real time    0.0004
       DOS:  cpu time    0.0000: real time    0.0000
    CHARGE:  cpu time    0.0609: real time    0.0612
    MIXING:  cpu time    0.0203: real time    0.0203
    --------------------------------------------
      LOOP:  cpu time    0.4761: real time    0.4776

 eigenvalue-minimisations  :    16
 total energy-change (2. order) :-0.7568647E-02  (-0.5420389E-03)
 number of electron       8.0000006 magnetization 
 augmentation part        0.7143567 magnetization 

 Broyden mixing:
  rms(total) = 0.13751E-01    rms(broyden)= 0.13745E-01
  rms(prec ) = 0.14994E-01
  weight for this iteration     100.00

 eigenvalues of (default mixing * dielectric matrix)
  average eigenvalue GAMMA=   1.9970
  4.5041  2.8224  2.5358  0.9903  0.9903  1.0679  1.0679

 Free energy of the ion-electron system (eV)
  ---------------------------------------------------
  alpha Z        PSCENC =         0.02750671
  Ewald energy   TEWEN  =       121.18733032
  -Hartree energ DENC   =      -513.75608870
  -exchange      EXHF   =         0.00000000
  -V(xc)+E(xc)   XCENC  =        34.54183799
  PAW double counting   =       558.87511355     -561.15446939
  entropy T*S    EENTRO =        -0.00000000
  eigenvalues    EBANDS =      -110.11987251
  atomic energy  EATOM  =       455.57420825
  Solvation  Ediel_sol  =         0.00000000
  ---------------------------------------------------
  free energy    TOTEN  =       -14.82443377 eV

  energy without entropy =      -14.82443377  energy(sigma->0) =      -14.82443377


--------------------------------------------------------------------------------------------------------




----------------------------------------- Iteration    1(  18)  ---------------------------------------


    POTLOK:  cpu time    0.2100: real time    0.2100
    SETDIJ:  cpu time    0.0011: real time    0.0011
    EDDIAG:  cpu time    0.0368: real time    0.0368
  RMM-DIIS:  cpu time    0.1458: real time    0.1458
    ORTHCH:  cpu time    0.0004: real time    0.0004
       DOS:  cpu time    0.0000: real time    0.0000
    CHARGE:  cpu time    0.0615: real time    0.0615
    MIXING:  cpu time    0.0207: real time    0.0207
    --------------------------------------------
      LOOP:  cpu time    0.4770: real time    0.4782

 eigenvalue-minimisations  :    16
 total energy-change (2. order) :-0.2411328E-03  (-0.8994045E-04)
 number of electron       8.0000006 magnetization 
 augmentation part        0.7132250 magnetization 

 Broyden mixing:
  rms(total) = 0.60918E-02    rms(broyden)= 0.60910E-02
  rms(prec ) = 0.68631E-02
  weight for this iteration     100.00

 eigenvalues of (default mixing * dielectric matrix)
  average eigenvalue GAMMA=   2.3175
  6.0370  2.9848  2.9848  2.3807  1.0883  1.0883  0.9688  1.0074

 Free energy of the ion-electron system (eV)
  ---------------------------------------------------
  alpha Z        PSCENC =         0.02750671
  Ewald energy   TEWEN  =       121.18733032
  -Hartree energ DENC   =      -514.04824822
  -exchange      EXHF   =         0.00000000
  -V(xc)+E(xc)   XCENC  =        34.55555943
  PAW double counting   =       558.99306859     -561.27678233
  entropy T*S    EENTRO =        -0.00000000
  eigenvalues    EBANDS =      -109.83731765
  atomic energy  EATOM  =       455.57420825
  Solvation  Ediel_sol  =         0.00000000
  ---------------------------------------------------
  free energy    TOTEN  =       -14.82467491 eV

  energy without entropy =      -14.82467491  energy(sigma->0) =      -14.82467491


--------------------------------------------------------------------------------------------------------




----------------------------------------- Iteration    1(  19)  ---------------------------------------


    POTLOK:  cpu time    0.2099: real time    0.2100
    SETDIJ:  cpu time    0.0010: real time    0.0010
    EDDIAG:  cpu time    0.0369: real time    0.0369
  RMM-DIIS:  cpu time    0.1450: real time    0.1453
    ORTHCH:  cpu time    0.0004: real time    0.0004
       DOS:  cpu time    0.0000: real time    0.0000
    CHARGE:  cpu time    0.0612: real time    0.0612
    MIXING:  cpu time    0.0211: real time    0.0211
    --------------------------------------------
      LOOP:  cpu time    0.4764: real time    0.4779

 eigenvalue-minimisations  :    16
 total energy-change (2. order) :-0.2351871E-02  (-0.3784753E-03)
 number of electron       8.0000006 magnetization 
 augmentation part        0.7107989 magnetization 

 Broyden mixing:
  rms(total) = 0.81124E-02    rms(broyden)= 0.81056E-02
  rms(prec ) = 0.87716E-02
  weight for this iteration     100.00

 eigenvalues of (default mixing * dielectric matrix)
  average eigenvalue GAMMA=   2.1730
  6.5060  3.2573  2.4764  2.4764  1.0912  1.0912  0.9580  0.9580  0.7431

 Free energy of the ion-electron system (eV)
  ---------------------------------------------------
  alpha Z        PSCENC =         0.02750671
  Ewald energy   TEWEN  =       121.18733032
  -Hartree energ DENC   =      -514.43047421
  -exchange      EXHF   =         0.00000000
  -V(xc)+E(xc)   XCENC  =        34.57123438
  PAW double counting   =       559.23261165     -561.52293914
  entropy T*S    EENTRO =        -0.00000000
  eigenvalues    EBANDS =      -109.46650474
  atomic energy  EATOM  =       455.57420825
  Solvation  Ediel_sol  =         0.00000000
  ---------------------------------------------------
  free energy    TOTEN  =       -14.82702678 eV

  energy without entropy =      -14.82702678  energy(sigma->0) =      -14.82702678


--------------------------------------------------------------------------------------------------------




----------------------------------------- Iteration    1(  20)  ---------------------------------------


    POTLOK:  cpu time    0.2095: real time    0.2097
    SETDIJ:  cpu time    0.0011: real time    0.0011
    EDDIAG:  cpu time    0.0369: real time    0.0369
  RMM-DIIS:  cpu time    0.1478: real time    0.1478
    ORTHCH:  cpu time    0.0004: real time    0.0004
       DOS:  cpu time    0.0000: real time    0.0000
    CHARGE:  cpu time    0.0616: real time    0.0616
    MIXING:  cpu time    0.0219: real time    0.0219
    --------------------------------------------
      LOOP:  cpu time    0.4800: real time    0.4814

 eigenvalue-minimisations  :    16
 total energy-change (2. order) : 0.4692060E-04  (-0.1631366E-04)
 number of electron       8.0000006 magnetization 
 augmentation part        0.7110270 magnetization 

 Broyden mixing:
  rms(total) = 0.56052E-02    rms(broyden)= 0.56051E-02
  rms(prec ) = 0.60804E-02
  weight for this iteration     100.00

 eigenvalues of (default mixing * dielectric matrix)
  average eigenvalue GAMMA=   2.3714
  6.9277  3.9763  3.0680  2.3658  1.6216  1.6216  1.0840  1.0840  0.9182  1.0468

 Free energy of the ion-electron system (eV)
  ---------------------------------------------------
  alpha Z        PSCENC =         0.02750671
  Ewald energy   TEWEN  =       121.18733032
  -Hartree energ DENC   =      -514.30398750
  -exchange      EXHF   =         0.00000000
  -V(xc)+E(xc)   XCENC  =        34.56431025
  PAW double counting   =       559.02469178     -561.31284548
  entropy T*S    EENTRO =        -0.00000000
  eigenvalues    EBANDS =      -109.58819419
  atomic energy  EATOM  =       455.57420825
  Solvation  Ediel_sol  =         0.00000000
  ---------------------------------------------------
  free energy    TOTEN  =       -14.82697986 eV

  energy without entropy =      -14.82697986  energy(sigma->0) =      -14.82697986


--------------------------------------------------------------------------------------------------------




----------------------------------------- Iteration    1(  21)  ---------------------------------------


    POTLOK:  cpu time    0.2099: real time    0.2100
    SETDIJ:  cpu time    0.0009: real time    0.0009
    EDDIAG:  cpu time    0.0367: real time    0.0367
  RMM-DIIS:  cpu time    0.1452: real time    0.1461
    ORTHCH:  cpu time    0.0004: real time    0.0004
       DOS:  cpu time    0.0000: real time    0.0000
    CHARGE:  cpu time    0.0610: real time    0.0610
    MIXING:  cpu time    0.0220: real time    0.0220
    --------------------------------------------
      LOOP:  cpu time    0.4768: real time    0.4790

 eigenvalue-minimisations  :    16
 total energy-change (2. order) :-0.5622363E-03  (-0.2211366E-03)
 number of electron       8.0000006 magnetization 
 augmentation part        0.7130260 magnetization 

 Broyden mixing:
  rms(total) = 0.60516E-02    rms(broyden)= 0.60460E-02
  rms(prec ) = 0.65155E-02
  weight for this iteration     100.00

 eigenvalues of (default mixing * dielectric matrix)
  average eigenvalue GAMMA=   2.3198
  7.5089  4.6558  2.7663  2.3322  2.3322  1.1307  1.1307  0.9832  0.9832  0.8686
  0.8260

 Free energy of the ion-electron system (eV)
  ---------------------------------------------------
  alpha Z        PSCENC =         0.02750671
  Ewald energy   TEWEN  =       121.18733032
  -Hartree energ DENC   =      -513.98617388
  -exchange      EXHF   =         0.00000000
  -V(xc)+E(xc)   XCENC  =        34.54625725
  PAW double counting   =       558.48431287     -560.76620794
  entropy T*S    EENTRO =        -0.00000000
  eigenvalues    EBANDS =      -109.89477567
  atomic energy  EATOM  =       455.57420825
  Solvation  Ediel_sol  =         0.00000000
  ---------------------------------------------------
  free energy    TOTEN  =       -14.82754209 eV

  energy without entropy =      -14.82754209  energy(sigma->0) =      -14.82754209


--------------------------------------------------------------------------------------------------------




----------------------------------------- Iteration    1(  22)  ---------------------------------------


    POTLOK:  cpu time    0.2149: real time    0.2149
    SETDIJ:  cpu time    0.0012: real time    0.0012
    EDDIAG:  cpu time    0.0373: real time    0.0373
  RMM-DIIS:  cpu time    0.1469: real time    0.1472
    ORTHCH:  cpu time    0.0004: real time    0.0004
       DOS:  cpu time    0.0001: real time    0.0001
    CHARGE:  cpu time    0.0618: real time    0.0618
    MIXING:  cpu time    0.0225: real time    0.0225
    --------------------------------------------
      LOOP:  cpu time    0.4857: real time    0.4872

 eigenvalue-minimisations  :    16
 total energy-change (2. order) : 0.5360745E-05  (-0.3439425E-05)
 number of electron       8.0000006 magnetization 
 augmentation part        0.7128853 magnetization 

 Broyden mixing:
  rms(total) = 0.46359E-02    rms(broyden)= 0.46358E-02
  rms(prec ) = 0.50120E-02
  weight for this iteration     100.00

 eigenvalues of (default mixing * dielectric matrix)
  average eigenvalue GAMMA=   2.2737
  7.6176  4.5240  2.8871  2.5135  1.8625  1.3399  1.3399  1.0804  1.0804  1.1656
  0.9723  0.9015

 Free energy of the ion-electron system (eV)
  ---------------------------------------------------
  alpha Z        PSCENC =         0.02750671
  Ewald energy   TEWEN  =       121.18733032
  -Hartree energ DENC   =      -514.04177581
  -exchange      EXHF   =         0.00000000
  -V(xc)+E(xc)   XCENC  =        34.54940567
  PAW double counting   =       558.66022728     -560.94341901
  entropy T*S    EENTRO =        -0.00000000
  eigenvalues    EBANDS =      -109.84102013
  atomic energy  EATOM  =       455.57420825
  Solvation  Ediel_sol  =         0.00000000
  ---------------------------------------------------
  free energy    TOTEN  =       -14.82753673 eV

  energy without entropy =      -14.82753673  energy(sigma->0) =      -14.82753673


--------------------------------------------------------------------------------------------------------




----------------------------------------- Iteration    1(  23)  ---------------------------------------


    POTLOK:  cpu time    0.2113: real time    0.2113
    SETDIJ:  cpu time    0.0012: real time    0.0012
    EDDIAG:  cpu time    0.0374: real time    0.0376
  RMM-DIIS:  cpu time    0.1458: real time    0.1458
    ORTHCH:  cpu time    0.0004: real time    0.0004
       DOS:  cpu time    0.0000: real time    0.0000
    CHARGE:  cpu time    0.0615: real time    0.0615
    MIXING:  cpu time    0.0227: real time    0.0227
    --------------------------------------------
      LOOP:  cpu time    0.4811: real time    0.4837

 eigenvalue-minimisations  :    16
 total energy-change (2. order) :-0.4220519E-04  (-0.6446782E-04)
 number of electron       8.0000006 magnetization 
 augmentation part        0.7117939 magnetization 

 Broyden mixing:
  rms(total) = 0.16802E-02    rms(broyden)= 0.16743E-02
  rms(prec ) = 0.18073E-02
  weight for this iteration     100.00

 eigenvalues of (default mixing * dielectric matrix)
  average eigenvalue GAMMA=   2.3512
  8.4112  4.6769  3.5796  2.5341  1.9906  1.8233  1.3008  1.3008  1.0551  1.0551
  0.9245  0.9569  0.9569

 Free energy of the ion-electron system (eV)
  ---------------------------------------------------
  alpha Z        PSCENC =         0.02750671
  Ewald energy   TEWEN  =       121.18733032
  -Hartree energ DENC   =      -514.22268901
  -exchange      EXHF   =         0.00000000
  -V(xc)+E(xc)   XCENC  =        34.55905629
  PAW double counting   =       558.90890662     -561.19543082
  entropy T*S    EENTRO =        -0.00000000
  eigenvalues    EBANDS =      -109.66646731
  atomic energy  EATOM  =       455.57420825
  Solvation  Ediel_sol  =         0.00000000
  ---------------------------------------------------
  free energy    TOTEN  =       -14.82757894 eV

  energy without entropy =      -14.82757894  energy(sigma->0) =      -14.82757894


--------------------------------------------------------------------------------------------------------




----------------------------------------- Iteration    1(  24)  ---------------------------------------


    POTLOK:  cpu time    0.2101: real time    0.2102
    SETDIJ:  cpu time    0.0010: real time    0.0010
    EDDIAG:  cpu time    0.0368: real time    0.0368
  RMM-DIIS:  cpu time    0.1534: real time    0.1536
    ORTHCH:  cpu time    0.0004: real time    0.0004
       DOS:  cpu time    0.0000: real time    0.0000
    CHARGE:  cpu time    0.0615: real time    0.0618
    MIXING:  cpu time    0.0229: real time    0.0229
    --------------------------------------------
      LOOP:  cpu time    0.4870: real time    0.4887

 eigenvalue-minimisations  :    17
 total energy-change (2. order) :-0.6289294E-04  (-0.1154905E-05)
 number of electron       8.0000006 magnetization 
 augmentation part        0.7117006 magnetization 

 Broyden mixing:
  rms(total) = 0.18870E-02    rms(broyden)= 0.18866E-02
  rms(prec ) = 0.20460E-02
  weight for this iteration     100.00

 eigenvalues of (default mixing * dielectric matrix)
  average eigenvalue GAMMA=   2.4377
  8.8873  5.3630  3.9108  2.7527  2.4187  1.8571  1.2726  1.2726  1.0836  1.0836
  1.2685  0.9008  1.0630  0.9930

 Free energy of the ion-electron system (eV)
  ---------------------------------------------------
  alpha Z        PSCENC =         0.02750671
  Ewald energy   TEWEN  =       121.18733032
  -Hartree energ DENC   =      -514.22390414
  -exchange      EXHF   =         0.00000000
  -V(xc)+E(xc)   XCENC  =        34.55897487
  PAW double counting   =       558.93981604     -561.22621854
  entropy T*S    EENTRO =        -0.00000000
  eigenvalues    EBANDS =      -109.66535535
  atomic energy  EATOM  =       455.57420825
  Solvation  Ediel_sol  =         0.00000000
  ---------------------------------------------------
  free energy    TOTEN  =       -14.82764183 eV

  energy without entropy =      -14.82764183  energy(sigma->0) =      -14.82764183


--------------------------------------------------------------------------------------------------------




----------------------------------------- Iteration    1(  25)  ---------------------------------------


    POTLOK:  cpu time    0.2096: real time    0.2100
    SETDIJ:  cpu time    0.0010: real time    0.0010
    EDDIAG:  cpu time    0.0367: real time    0.0367
  RMM-DIIS:  cpu time    0.1454: real time    0.1454
    ORTHCH:  cpu time    0.0004: real time    0.0004
       DOS:  cpu time    0.0000: real time    0.0000
    CHARGE:  cpu time    0.0610: real time    0.0610
    MIXING:  cpu time    0.0235: real time    0.0235
    --------------------------------------------
      LOOP:  cpu time    0.4786: real time    0.4801

 eigenvalue-minimisations  :    16
 total energy-change (2. order) :-0.2185134E-04  (-0.8054023E-06)
 number of electron       8.0000006 magnetization 
 augmentation part        0.7118179 magnetization 

 Broyden mixing:
  rms(total) = 0.11854E-02    rms(broyden)= 0.11854E-02
  rms(prec ) = 0.12842E-02
  weight for this iteration     100.00

 eigenvalues of (default mixing * dielectric matrix)
  average eigenvalue GAMMA=   2.4470
  8.9608  6.1072  3.5954  3.2548  2.4854  1.6935  1.6935  1.4206  1.4206  1.0759
  1.0759  0.9010  1.0056  1.0075  1.0075

 Free energy of the ion-electron system (eV)
  ---------------------------------------------------
  alpha Z        PSCENC =         0.02750671
  Ewald energy   TEWEN  =       121.18733032
  -Hartree energ DENC   =      -514.19866044
  -exchange      EXHF   =         0.00000000
  -V(xc)+E(xc)   XCENC  =        34.55754868
  PAW double counting   =       558.91545754     -561.20150422
  entropy T*S    EENTRO =        -0.00000000
  eigenvalues    EBANDS =      -109.68955052
  atomic energy  EATOM  =       455.57420825
  Solvation  Ediel_sol  =         0.00000000
  ---------------------------------------------------
  free energy    TOTEN  =       -14.82766368 eV

  energy without entropy =      -14.82766368  energy(sigma->0) =      -14.82766368


--------------------------------------------------------------------------------------------------------




----------------------------------------- Iteration    1(  26)  ---------------------------------------


    POTLOK:  cpu time    0.2097: real time    0.2097
    SETDIJ:  cpu time    0.0010: real time    0.0010
    EDDIAG:  cpu time    0.0368: real time    0.0368
  RMM-DIIS:  cpu time    0.1456: real time    0.1456
    ORTHCH:  cpu time    0.0004: real time    0.0004
       DOS:  cpu time    0.0000: real time    0.0000
    CHARGE:  cpu time    0.0615: real time    0.0615
    MIXING:  cpu time    0.0239: real time    0.0239
    --------------------------------------------
      LOOP:  cpu time    0.4796: real time    0.4809

 eigenvalue-minimisations  :    16
 total energy-change (2. order) :-0.1624649E-04  (-0.3831780E-05)
 number of electron       8.0000006 magnetization 
 augmentation part        0.7120778 magnetization 

 Broyden mixing:
  rms(total) = 0.27344E-03    rms(broyden)= 0.27107E-03
  rms(prec ) = 0.29616E-03
  weight for this iteration     100.00

 eigenvalues of (default mixing * dielectric matrix)
  average eigenvalue GAMMA=   2.4377
  9.1470  6.3197  3.9493  3.1554  2.5309  2.5309  1.3941  1.3941  1.3627  1.3627
  1.0802  1.0802  0.9965  0.9965  0.8835  0.8192

 Free energy of the ion-electron system (eV)
  ---------------------------------------------------
  alpha Z        PSCENC =         0.02750671
  Ewald energy   TEWEN  =       121.18733032
  -Hartree energ DENC   =      -514.15358817
  -exchange      EXHF   =         0.00000000
  -V(xc)+E(xc)   XCENC  =        34.55508884
  PAW double counting   =       558.83796511     -561.12330144
  entropy T*S    EENTRO =        -0.00000000
  eigenvalues    EBANDS =      -109.73288955
  atomic energy  EATOM  =       455.57420825
  Solvation  Ediel_sol  =         0.00000000
  ---------------------------------------------------
  free energy    TOTEN  =       -14.82767993 eV

  energy without entropy =      -14.82767993  energy(sigma->0) =      -14.82767993


--------------------------------------------------------------------------------------------------------




----------------------------------------- Iteration    1(  27)  ---------------------------------------


    POTLOK:  cpu time    0.2097: real time    0.2100
    SETDIJ:  cpu time    0.0009: real time    0.0009
    EDDIAG:  cpu time    0.0367: real time    0.0367
  RMM-DIIS:  cpu time    0.1472: real time    0.1472
    ORTHCH:  cpu time    0.0004: real time    0.0004
       DOS:  cpu time    0.0000: real time    0.0000
    CHARGE:  cpu time    0.0611: real time    0.0613
    MIXING:  cpu time    0.0245: real time    0.0245
    --------------------------------------------
      LOOP:  cpu time    0.4813: real time    0.4828

 eigenvalue-minimisations  :    16
 total energy-change (2. order) :-0.7210922E-05  (-0.6200959E-07)
 number of electron       8.0000006 magnetization 
 augmentation part        0.7120833 magnetization 

 Broyden mixing:
  rms(total) = 0.23579E-03    rms(broyden)= 0.23569E-03
  rms(prec ) = 0.25795E-03
  weight for this iteration     100.00

 eigenvalues of (default mixing * dielectric matrix)
  average eigenvalue GAMMA=   2.5207
  9.3898  6.9206  4.3002  3.7542  2.6315  2.4776  2.1100  1.4406  1.4406  1.2430
  1.2430  1.0663  1.0663  0.9847  0.9198  0.9320  0.9320

 Free energy of the ion-electron system (eV)
  ---------------------------------------------------
  alpha Z        PSCENC =         0.02750671
  Ewald energy   TEWEN  =       121.18733032
  -Hartree energ DENC   =      -514.15817060
  -exchange      EXHF   =         0.00000000
  -V(xc)+E(xc)   XCENC  =        34.55532691
  PAW double counting   =       558.84020195     -561.12560051
  entropy T*S    EENTRO =        -0.00000000
  eigenvalues    EBANDS =      -109.72849018
  atomic energy  EATOM  =       455.57420825
  Solvation  Ediel_sol  =         0.00000000
  ---------------------------------------------------
  free energy    TOTEN  =       -14.82768714 eV

  energy without entropy =      -14.82768714  energy(sigma->0) =      -14.82768714


--------------------------------------------------------------------------------------------------------




----------------------------------------- Iteration    1(  28)  ---------------------------------------


    POTLOK:  cpu time    0.2098: real time    0.2101
    SETDIJ:  cpu time    0.0011: real time    0.0011
    EDDIAG:  cpu time    0.0369: real time    0.0369
  RMM-DIIS:  cpu time    0.1460: real time    0.1460
    ORTHCH:  cpu time    0.0004: real time    0.0004
       DOS:  cpu time    0.0000: real time    0.0000
    CHARGE:  cpu time    0.0617: real time    0.0617
    MIXING:  cpu time    0.0250: real time    0.0250
    --------------------------------------------
      LOOP:  cpu time    0.4816: real time    0.4833

 eigenvalue-minimisations  :    16
 total energy-change (2. order) :-0.6131245E-05  (-0.7660030E-07)
 number of electron       8.0000006 magnetization 
 augmentation part        0.7120488 magnetization 

 Broyden mixing:
  rms(total) = 0.41180E-04    rms(broyden)= 0.41039E-04
  rms(prec ) = 0.44094E-04
  weight for this iteration     100.00

 eigenvalues of (default mixing * dielectric matrix)
  average eigenvalue GAMMA=   2.4908
  9.5479  6.9470  4.8903  3.1596  3.1596  2.4147  2.4147  1.4548  1.4548  1.2536
  1.2536  1.0752  1.0752  1.0024  1.0024  0.9394  0.8942  0.8942

 Free energy of the ion-electron system (eV)
  ---------------------------------------------------
  alpha Z        PSCENC =         0.02750671
  Ewald energy   TEWEN  =       121.18733032
  -Hartree energ DENC   =      -514.16659517
  -exchange      EXHF   =         0.00000000
  -V(xc)+E(xc)   XCENC  =        34.55579220
  PAW double counting   =       558.85815528     -561.14360797
  entropy T*S    EENTRO =        -0.00000000
  eigenvalues    EBANDS =      -109.72048290
  atomic energy  EATOM  =       455.57420825
  Solvation  Ediel_sol  =         0.00000000
  ---------------------------------------------------
  free energy    TOTEN  =       -14.82769327 eV

  energy without entropy =      -14.82769327  energy(sigma->0) =      -14.82769327


--------------------------------------------------------------------------------------------------------




----------------------------------------- Iteration    1(  29)  ---------------------------------------


    POTLOK:  cpu time    0.1990: real time    0.2149
    SETDIJ:  cpu time    0.0009: real time    0.0009
    EDDIAG:  cpu time    0.0361: real time    0.0371
  RMM-DIIS:  cpu time    0.1284: real time    0.1377
    ORTHCH:  cpu time    0.0008: real time    0.0048
       DOS:  cpu time    0.0001: real time    0.0001
    CHARGE:  cpu time    0.0573: real time    0.0590
    MIXING:  cpu time    0.0251: real time    0.0258
    --------------------------------------------
      LOOP:  cpu time    0.4486: real time    0.4829

 eigenvalue-minimisations  :    14
 total energy-change (2. order) :-0.9113159E-06  (-0.3143064E-08)
 number of electron       8.0000006 magnetization 
 augmentation part        0.7120444 magnetization 

 Broyden mixing:
  rms(total) = 0.24535E-04    rms(broyden)= 0.24503E-04
  rms(prec ) = 0.26009E-04
  weight for this iteration     100.00

 eigenvalues of (default mixing * dielectric matrix)
  average eigenvalue GAMMA=   2.5141
  9.6564  7.0835  5.0140  3.4602  2.6636  2.6636  2.5780  2.3251  1.4474  1.4474
  1.3768  1.0689  1.0689  1.1818  0.9995  0.9995  0.9995  0.8871  0.8461

 Free energy of the ion-electron system (eV)
  ---------------------------------------------------
  alpha Z        PSCENC =         0.02750671
  Ewald energy   TEWEN  =       121.18733032
  -Hartree energ DENC   =      -514.16720540
  -exchange      EXHF   =         0.00000000
  -V(xc)+E(xc)   XCENC  =        34.55582459
  PAW double counting   =       558.85822492     -561.14368765
  entropy T*S    EENTRO =        -0.00000000
  eigenvalues    EBANDS =      -109.71989593
  atomic energy  EATOM  =       455.57420825
  Solvation  Ediel_sol  =         0.00000000
  ---------------------------------------------------
  free energy    TOTEN  =       -14.82769418 eV

  energy without entropy =      -14.82769418  energy(sigma->0) =      -14.82769418


--------------------------------------------------------------------------------------------------------




----------------------------------------- Iteration    1(  30)  ---------------------------------------


    POTLOK:  cpu time    0.2068: real time    0.2195
    SETDIJ:  cpu time    0.0009: real time    0.0009
    EDDIAG:  cpu time    0.0375: real time    0.0420
  RMM-DIIS:  cpu time    0.1288: real time    0.1362
    ORTHCH:  cpu time    0.0004: real time    0.0004
       DOS:  cpu time    0.0000: real time    0.0000
    CHARGE:  cpu time    0.0577: real time    0.0641
    MIXING:  cpu time    0.0257: real time    0.0267
    --------------------------------------------
      LOOP:  cpu time    0.4587: real time    0.4917

 eigenvalue-minimisations  :    14
 total energy-change (2. order) :-0.8164882E-06  (-0.2431333E-08)
 number of electron       8.0000006 magnetization 
 augmentation part        0.7120503 magnetization 

 Broyden mixing:
  rms(total) = 0.51892E-04    rms(broyden)= 0.51885E-04
  rms(prec ) = 0.56566E-04
  weight for this iteration     100.00

 eigenvalues of (default mixing * dielectric matrix)
  average eigenvalue GAMMA=   2.5105
  9.7507  7.1760  5.4104  3.9002  2.9201  2.9201  2.5348  2.2841  1.4521  1.4521
  1.2801  1.2801  1.0743  1.0743  1.0070  1.0070  0.9655  0.9655  0.8777  0.8777

 Free energy of the ion-electron system (eV)
  ---------------------------------------------------
  alpha Z        PSCENC =         0.02750671
  Ewald energy   TEWEN  =       121.18733032
  -Hartree energ DENC   =      -514.16531020
  -exchange      EXHF   =         0.00000000
  -V(xc)+E(xc)   XCENC  =        34.55571339
  PAW double counting   =       558.85331843     -561.13878788
  entropy T*S    EENTRO =        -0.00000000
  eigenvalues    EBANDS =      -109.72167403
  atomic energy  EATOM  =       455.57420825
  Solvation  Ediel_sol  =         0.00000000
  ---------------------------------------------------
  free energy    TOTEN  =       -14.82769500 eV

  energy without entropy =      -14.82769500  energy(sigma->0) =      -14.82769500


--------------------------------------------------------------------------------------------------------




----------------------------------------- Iteration    1(  31)  ---------------------------------------


    POTLOK:  cpu time    0.2084: real time    0.2111
    SETDIJ:  cpu time    0.0010: real time    0.0010
    EDDIAG:  cpu time    0.0369: real time    0.0369
  RMM-DIIS:  cpu time    0.1373: real time    0.1373
    ORTHCH:  cpu time    0.0004: real time    0.0004
       DOS:  cpu time    0.0000: real time    0.0000
    CHARGE:  cpu time    0.0610: real time    0.0610
    MIXING:  cpu time    0.0266: real time    0.0266
    --------------------------------------------
      LOOP:  cpu time    0.4723: real time    0.4761

 eigenvalue-minimisations  :    15
 total energy-change (2. order) :-0.2725652E-06  (-0.3220521E-08)
 number of electron       8.0000006 magnetization 
 augmentation part        0.7120429 magnetization 

 Broyden mixing:
  rms(total) = 0.93431E-05    rms(broyden)= 0.92969E-05
  rms(prec ) = 0.10269E-04
  weight for this iteration     100.00

 eigenvalues of (default mixing * dielectric matrix)
  average eigenvalue GAMMA=   2.4975
  9.7732  7.2929  5.6486  4.1405  3.3997  2.6098  2.6098  2.2380  1.4589  1.4589
  1.5238  1.5238  1.0711  1.0711  1.1200  0.9924  0.9637  0.9637  0.9141  0.8369
  0.8369

 Free energy of the ion-electron system (eV)
[...]
  RMM-DIIS:  cpu time    0.1147: real time    0.1147
    ORTHCH:  cpu time    0.0004: real time    0.0004
       DOS:  cpu time    0.0000: real time    0.0000
    CHARGE:  cpu time    0.0621: real time    0.0621
    MIXING:  cpu time    0.0225: real time    0.0225
    --------------------------------------------
      LOOP:  cpu time    0.4495: real time    0.4511

 eigenvalue-minimisations  :    12
 total energy-change (2. order) :-0.4591840E-07  (-0.1393445E-09)
 number of electron       8.0000002 magnetization 
 augmentation part        0.7119758 magnetization 

 Broyden mixing:
  rms(total) = 0.58950E-05    rms(broyden)= 0.58935E-05
  rms(prec ) = 0.63692E-05
  weight for this iteration     100.00

 eigenvalues of (default mixing * dielectric matrix)
  average eigenvalue GAMMA=   2.4549
  9.6514  6.8097  4.6017  2.9726  2.8284  2.4415  1.9041  1.0731  1.0731  1.3518
  1.3518  1.0489  1.0489  0.9832  0.9543  0.9159  0.7227

 Free energy of the ion-electron system (eV)
  ---------------------------------------------------
  alpha Z        PSCENC =         0.02750671
  Ewald energy   TEWEN  =       121.16637468
  -Hartree energ DENC   =      -514.15043860
  -exchange      EXHF   =         0.00000000
  -V(xc)+E(xc)   XCENC  =        34.55495659
  PAW double counting   =       558.78197705     -561.06723828
  entropy T*S    EENTRO =        -0.00000000
  eigenvalues    EBANDS =      -109.71502626
  atomic energy  EATOM  =       455.57420825
  Solvation  Ediel_sol  =         0.00000000
  ---------------------------------------------------
  free energy    TOTEN  =       -14.82767986 eV

  energy without entropy =      -14.82767986  energy(sigma->0) =      -14.82767986


--------------------------------------------------------------------------------------------------------




----------------------------------------- Iteration   19(  19)  ---------------------------------------


    POTLOK:  cpu time    0.2115: real time    0.2115
    SETDIJ:  cpu time    0.0013: real time    0.0013
    EDDIAG:  cpu time    0.0368: real time    0.0368
  RMM-DIIS:  cpu time    0.1004: real time    0.1004
    ORTHCH:  cpu time    0.0004: real time    0.0004
       DOS:  cpu time    0.0000: real time    0.0000
    CHARGE:  cpu time    0.0614: real time    0.0614
    MIXING:  cpu time    0.0231: real time    0.0231
    --------------------------------------------
      LOOP:  cpu time    0.4357: real time    0.4369

 eigenvalue-minimisations  :     9
 total energy-change (2. order) :-0.7564097E-07  (-0.2837020E-10)
 number of electron       8.0000002 magnetization 
 augmentation part        0.7119759 magnetization 

 Broyden mixing:
  rms(total) = 0.41625E-05    rms(broyden)= 0.41624E-05
  rms(prec ) = 0.44804E-05
  weight for this iteration     100.00

 eigenvalues of (default mixing * dielectric matrix)
  average eigenvalue GAMMA=   2.4748
  9.7671  7.0150  4.9802  3.3160  3.3160  2.5146  2.1533  1.3739  1.3739  1.0733
  1.0733  1.0783  1.0783  0.9636  0.9636  0.8857  0.8857  0.7341

 Free energy of the ion-electron system (eV)
  ---------------------------------------------------
  alpha Z        PSCENC =         0.02750671
  Ewald energy   TEWEN  =       121.16637468
  -Hartree energ DENC   =      -514.15032594
  -exchange      EXHF   =         0.00000000
  -V(xc)+E(xc)   XCENC  =        34.55495038
  PAW double counting   =       558.78176878     -561.06702799
  entropy T*S    EENTRO =        -0.00000000
  eigenvalues    EBANDS =      -109.71513481
  atomic energy  EATOM  =       455.57420825
  Solvation  Ediel_sol  =         0.00000000
  ---------------------------------------------------
  free energy    TOTEN  =       -14.82767994 eV

  energy without entropy =      -14.82767994  energy(sigma->0) =      -14.82767994


--------------------------------------------------------------------------------------------------------




----------------------------------------- Iteration   19(  20)  ---------------------------------------


    POTLOK:  cpu time    0.2108: real time    0.2112
    SETDIJ:  cpu time    0.0013: real time    0.0013
    EDDIAG:  cpu time    0.0372: real time    0.0372
  RMM-DIIS:  cpu time    0.1141: real time    0.1141
    ORTHCH:  cpu time    0.0004: real time    0.0004
       DOS:  cpu time    0.0001: real time    0.0001
    CHARGE:  cpu time    0.0621: real time    0.0621
    MIXING:  cpu time    0.0234: real time    0.0235
    --------------------------------------------
      LOOP:  cpu time    0.4500: real time    0.4515

 eigenvalue-minimisations  :    12
 total energy-change (2. order) :-0.4599286E-07  (-0.5873702E-10)
 number of electron       8.0000002 magnetization 
 augmentation part        0.7119764 magnetization 

 Broyden mixing:
  rms(total) = 0.14940E-05    rms(broyden)= 0.14910E-05
  rms(prec ) = 0.15809E-05
  weight for this iteration     100.00

 eigenvalues of (default mixing * dielectric matrix)
  average eigenvalue GAMMA=   2.4195
  9.8436  7.2677  5.0087  3.6179  2.8934  2.5045  1.8264  1.8264  1.0736  1.0736
  1.3853  1.3853  1.1219  0.9897  0.9897  0.9436  0.9436  0.7319  0.5432

 Free energy of the ion-electron system (eV)
  ---------------------------------------------------
  alpha Z        PSCENC =         0.02750671
  Ewald energy   TEWEN  =       121.16637468
  -Hartree energ DENC   =      -514.15020475
  -exchange      EXHF   =         0.00000000
  -V(xc)+E(xc)   XCENC  =        34.55494370
  PAW double counting   =       558.78158998     -561.06684718
  entropy T*S    EENTRO =        -0.00000000
  eigenvalues    EBANDS =      -109.71525138
  atomic energy  EATOM  =       455.57420825
  Solvation  Ediel_sol  =         0.00000000
  ---------------------------------------------------
  free energy    TOTEN  =       -14.82767999 eV

  energy without entropy =      -14.82767999  energy(sigma->0) =      -14.82767999


--------------------------------------------------------------------------------------------------------




----------------------------------------- Iteration   19(  21)  ---------------------------------------


    POTLOK:  cpu time    0.2110: real time    0.2110
    SETDIJ:  cpu time    0.0013: real time    0.0013
    EDDIAG:  cpu time    0.0369: real time    0.0369
  RMM-DIIS:  cpu time    0.0963: real time    0.0963
    ORTHCH:  cpu time    0.0004: real time    0.0004
       DOS:  cpu time    0.0000: real time    0.0000
    --------------------------------------------
      LOOP:  cpu time    0.3467: real time    0.3480

 eigenvalue-minimisations  :     8
 total energy-change (2. order) :-0.4507854E-08  ( 0.0000000E+00)
 number of electron       8.0000002 magnetization 
 augmentation part        0.7119764 magnetization 

 Free energy of the ion-electron system (eV)
  ---------------------------------------------------
  alpha Z        PSCENC =         0.02750671
  Ewald energy   TEWEN  =       121.16637468
  -Hartree energ DENC   =      -514.15022403
  -exchange      EXHF   =         0.00000000
  -V(xc)+E(xc)   XCENC  =        34.55494491
  PAW double counting   =       558.78165345     -561.06691121
  entropy T*S    EENTRO =        -0.00000000
  eigenvalues    EBANDS =      -109.71523275
  atomic energy  EATOM  =       455.57420825
  Solvation  Ediel_sol  =         0.00000000
  ---------------------------------------------------
  free energy    TOTEN  =       -14.82767999 eV

  energy without entropy =      -14.82767999  energy(sigma->0) =      -14.82767999


--------------------------------------------------------------------------------------------------------




 average (electrostatic) potential at core
  the test charge radii are     0.5201  0.7215
  (the norm of the test charge is              1.0000)
       1 -44.1359       2 -44.1363       3 -81.5618
 
 
 
 E-fermi :  -6.8776     XC(G=0):  -0.0936     alpha+bet : -0.0167


 k-point     1 :       0.0000    0.0000    0.0000
  band No.  band energies     occupation 
      1     -25.0732      2.00000
      2     -13.1564      2.00000
      3      -9.2843      2.00000
      4      -7.3437      2.00000
      5      -0.9855      0.00000
      6       0.0153      0.00000
      7       0.2482      0.00000
      8       0.3197      0.00000


--------------------------------------------------------------------------------------------------------


 soft charge-density along one line, spin component           1
         0         1         2         3         4         5         6         7         8         9
 total charge-density along one line
 
 pseudopotential strength for first ion, spin component:           1
 -2.206  -3.880  -0.001   0.000  -0.002
 -3.880  -6.745  -0.004   0.000  -0.008
 -0.001  -0.004  -0.322  -0.000   0.004
  0.000   0.000  -0.000  -0.324  -0.000
 -0.002  -0.008   0.004  -0.000  -0.316
 total augmentation occupancy for first ion, spin component:           1
  4.100  -0.892   0.321  -0.011   0.654
 -0.892   0.238  -0.073   0.002  -0.138
  0.321  -0.073   0.047  -0.000   0.043
 -0.011   0.002  -0.000   0.038  -0.001
  0.654  -0.138   0.043  -0.001   0.108


------------------------ aborting loop because EDIFF is reached ----------------------------------------


    CHARGE:  cpu time    0.0615: real time    0.0616
    FORLOC:  cpu time    0.0262: real time    0.0262
    FORNL :  cpu time    0.0511: real time    0.0511
    STRESS:  cpu time    0.1815: real time    0.1818
    FORCOR:  cpu time    0.1680: real time    0.1682
    FORHAR:  cpu time    0.1903: real time    0.1903
    MIXING:  cpu time    0.0254: real time    0.0254
    OFIELD:  cpu time    0.0000: real time    0.0000

  FORCE on cell =-STRESS in cart. coord.  units (eV):
  Direction    XX          YY          ZZ          XY          YZ          ZX
  --------------------------------------------------------------------------------------
  Alpha Z     0.02751     0.02751     0.02751
  Ewald      97.71402    45.22713   -21.77476    -9.80518    -1.62599    -0.29433
  Hartree   181.19366   172.40702   160.54952    -1.63804    -0.28752    -0.05205
  E(xc)     -34.62405   -34.62425   -34.62472    -0.00004    -0.00001    -0.00000
  Local    -355.15495  -308.64879  -250.46636     8.67920     1.40975     0.25519
  n-local   -28.70341   -29.46078   -29.29763    -0.14138     0.00467     0.00062
  augment     6.56757     7.54914     9.04194     0.18397     0.03643     0.00660
  Kinetic   132.26112   146.73515   165.67855     2.70908     0.46063     0.08339
  Fock        0.00000     0.00000     0.00000     0.00000     0.00000     0.00000
  -------------------------------------------------------------------------------------
  Total      -0.71853    -0.78787    -0.86595    -0.01239    -0.00206    -0.00058
  in kB      -0.14390    -0.15779    -0.17343    -0.00248    -0.00041    -0.00012
  external pressure =       -0.16 kB  Pullay stress =        0.00 kB


 VOLUME and BASIS-vectors are now :
 -----------------------------------------------------------------------------
  energy-cutoff  :      400.00
  volume of cell :     8000.00
      direct lattice vectors                 reciprocal lattice vectors
    20.000000000  0.000000000  0.000000000     0.050000000  0.000000000  0.000000000
     0.000000000 20.000000000  0.000000000     0.000000000  0.050000000  0.000000000
     0.000000000  0.000000000 20.000000000     0.000000000  0.000000000  0.050000000

  length of vectors
    20.000000000 20.000000000 20.000000000     0.050000000  0.050000000  0.050000000


 FORCES acting on ions
    electron-ion (+dipol)            ewald-force                    non-local-force                 convergence-correction
 -----------------------------------------------------------------------------------------------
   0.795E+02 0.369E+02 -.128E+01   -.867E+02 -.403E+02 0.140E+01   0.720E+01 0.337E+01 -.117E+00   0.130E-05 0.652E-06 -.304E-05
   -.615E+02 0.625E+02 -.128E+01   0.671E+02 -.681E+02 0.140E+01   -.556E+01 0.568E+01 -.117E+00   -.100E-05 0.105E-05 -.303E-05
   -.108E+02 -.599E+02 0.154E+01   0.196E+02 0.108E+03 -.279E+01   -.879E+01 -.486E+02 0.125E+01   -.570E-06 -.155E-05 -.578E-04
 -----------------------------------------------------------------------------------------------
   0.715E+01 0.395E+02 -.102E+01   0.000E+00 0.000E+00 0.000E+00   -.715E+01 -.395E+02 0.102E+01   -.277E-06 0.161E-06 -.638E-04
 
 
 POSITION                                       TOTAL-FORCE (eV/Angst)
 -----------------------------------------------------------------------------------
      9.23774      9.91352     10.00000         0.024841      0.018174     -0.000733
     10.76305      9.63739     10.00000        -0.016116      0.024948     -0.000730
     10.10580     10.35764      9.98500        -0.008725     -0.043122      0.001463
 -----------------------------------------------------------------------------------
    total drift:                                0.000216      0.000112      0.000412


--------------------------------------------------------------------------------------------------------



  FREE ENERGIE OF THE ION-ELECTRON SYSTEM (eV)
  ---------------------------------------------------
  free  energy   TOTEN  =       -14.82767999 eV

  energy  without entropy=      -14.82767999  energy(sigma->0) =      -14.82767999
 
 d Force =-0.2503182E-06[-0.439E-04, 0.434E-04]  d Energy =-0.1113358E-07-0.239E-06
 d Force = 0.6938894E-17[ 0.838E-01,-0.838E-01]  d Ewald  = 0.0000000E+00 0.000E+00


--------------------------------------------------------------------------------------------------------


    POTLOK:  cpu time    0.2142: real time    0.2143


--------------------------------------------------------------------------------------------------------


 stress matrix after NEB project (eV)
     -0.71853     -0.01239     -0.00058
     -0.01239     -0.78787     -0.00206
     -0.00058     -0.00206     -0.86595
  FORCES: max atom, RMS     0.044020    0.035442
  FORCE total and by dimension    0.061387    0.043122
  Stress total and by dimension    1.373758    0.865953
 Finite differences progress:
  Degree of freedom:   9/  9
  Displacement:        2/  2
  Total:              18/ 18
 
 SECOND DERIVATIVES (NOT SYMMETRIZED)
 ------------------------------------
               1X          1Y          1Z          2X          2Y          2Z          3X          3Y          3Z 
  1X   -41.178974  -17.304550   -0.000005    2.558849    2.163691   -0.000004   38.620125   15.140859    0.000009
  1Y   -17.256049  -12.130662   -0.000004   -3.366139   -0.645733   -0.000004   20.622189   12.776395    0.000008
  1Z    -0.000001    0.000187   -0.040831   -0.000107    0.000195   -0.001335    0.000109   -0.000382    0.042166
  2X     2.557908   -3.362244    0.000042  -26.111255   22.438103    0.000037   23.553347  -19.075859   -0.000079
  2Y     2.166603   -0.643486   -0.000005   22.507921  -27.000539   -0.000005  -24.674524   27.644025    0.000010
  2Z     0.000229    0.000045   -0.000309   -0.000068    0.000113   -0.042687   -0.000160   -0.000157    0.042996
  3X    38.627091   20.678939    0.000078   23.569773  -24.645876    0.000082  -62.196864    3.966937   -0.000161
  3Y    15.176223   12.815692   -0.000015  -19.147526   27.625527   -0.000015    3.971303  -40.441219    0.000029
  3Z    -0.000014   -0.000111    0.048564   -0.000055   -0.000115    0.048383    0.000069    0.000226   -0.096947
 
 
 Eigenvectors and eigenvalues of the dynamical matrix
 ----------------------------------------------------
 
 
   1 f  =  114.572212 THz   719.878437 2PiTHz 3821.717493 cm-1   473.832750 meV
             X         Y         Z           dx          dy          dz
      9.237744  9.913520 10.000000     0.626129    0.318367    0.000001  
     10.763052  9.637389 10.000000     0.442228   -0.487727   -0.000001  
     10.105805 10.357641 10.000000    -0.267179    0.042153    0.000000  
 
   2 f  =  111.027539 THz   697.606602 2PiTHz 3703.479948 cm-1   459.173157 meV
             X         Y         Z           dx          dy          dz
      9.237744  9.913520 10.000000    -0.619206   -0.261490    0.000002  
     10.763052  9.637389 10.000000     0.516847   -0.494610    0.000002  
     10.105805 10.357641 10.000000     0.025527    0.189171   -0.000000  
 
   3 f  =   46.039942 THz   289.277490 2PiTHz 1535.727129 cm-1   190.405965 meV
             X         Y         Z           dx          dy          dz
      9.237744  9.913520 10.000000    -0.300325    0.610484   -0.000011  
     10.763052  9.637389 10.000000     0.495546    0.465699   -0.000000  
     10.105805 10.357641 10.000000    -0.048687   -0.268890    0.000003  
 
   4 f  =    3.452212 THz    21.690888 2PiTHz  115.153397 cm-1    14.277207 meV
             X         Y         Z           dx          dy          dz
      9.237744  9.913520 10.000000     0.000199   -0.000242   -0.577620  
     10.763052  9.637389 10.000000     0.000267    0.000149   -0.737189  
     10.105805 10.357641 10.000000     0.000339   -0.000056    0.350582  
 
   5 f  =    3.159236 THz    19.850066 2PiTHz  105.380772 cm-1    13.065555 meV
             X         Y         Z           dx          dy          dz
      9.237744  9.913520 10.000000     0.000555   -0.001213    0.775543  
     10.763052  9.637389 10.000000     0.000962    0.000988   -0.629605  
     10.105805 10.357641 10.000000    -0.000331    0.000139   -0.046121  
 
   6 f  =    1.930809 THz    12.131629 2PiTHz   64.404843 cm-1     7.985186 meV
             X         Y         Z           dx          dy          dz
      9.237744  9.913520 10.000000    -0.309310    0.605281    0.001201  
     10.763052  9.637389 10.000000    -0.511876   -0.508873   -0.001580  
     10.105805 10.357641 10.000000     0.059794   -0.115820   -0.000222  
 
   7 f/i=    0.020455 THz     0.128525 2PiTHz    0.682319 cm-1     0.084597 meV
             X         Y         Z           dx          dy          dz
      9.237744  9.913520 10.000000     0.125951   -0.198736   -0.003278  
     10.763052  9.637389 10.000000     0.126091   -0.199235   -0.003161  
     10.105805 10.357641 10.000000     0.505160   -0.796036   -0.012883  
 
   8 f/i=    0.076806 THz     0.482588 2PiTHz    2.561983 cm-1     0.317646 meV
             X         Y         Z           dx          dy          dz
      9.237744  9.913520 10.000000    -0.001223    0.003154   -0.254707  
     10.763052  9.637389 10.000000    -0.001256    0.002988   -0.245230  
     10.105805 10.357641 10.000000    -0.004710    0.012242   -0.935304  
 
   9 f/i=    0.318004 THz     1.998076 2PiTHz   10.607462 cm-1     1.315158 meV
             X         Y         Z           dx          dy          dz
      9.237744  9.913520 10.000000    -0.151041   -0.227381   -0.001024  
     10.763052  9.637389 10.000000    -0.117554   -0.044180   -0.000707  
     10.105805 10.357641 10.000000    -0.816583   -0.492847   -0.002426  
 
 Finite differences POTIM=  1.500000000000000E-002
     LOOP+:  cpu time   10.6424: real time   10.6850
    4ORBIT:  cpu time    0.0000: real time    0.0000

 total amount of memory used by VASP on root node    92593. kBytes
========================================================================

   base      :      30000. kBytes
   nonlr-proj:        294. kBytes
   fftplans  :      23332. kBytes
   grid      :      38447. kBytes
   one-center:          3. kBytes
   wavefun   :        517. kBytes
 
  
  
 General timing and accounting informations for this job:
 ========================================================
  
                  Total CPU time used (sec):      205.878
                            User time (sec):      200.312
                          System time (sec):        5.566
                         Elapsed time (sec):      208.606
  
                   Maximum memory used (kb):      259360.
                   Average memory used (kb):           0.
  
                          Minor page faults:       140160
                          Major page faults:            1
                 Voluntary context switches:         5615
