   12   12  200    1
  0.6666667E+03  0.2000000E-08  0.2000000E-08  0.2000000E-08  0.5000000E-15
  1.000000000000000E-004
  CAR 
 unknown system                          
   26    1   20
 
  0.0000000E+00  0.0000000E+00  0.0000000E+00  0.1000000E+01
   1      -25.722405
   2      -18.782876
   3      -16.512167
   4      -14.754008
   5      -11.922799
   6      -11.605396
   7      -10.928318
   8      -10.087982
   9       -9.210387
  10       -8.725811
  11       -8.380767
  12       -7.521058
  13       -5.772040
  14       -0.485834
  15       -0.114703
  16        0.069765
  17        0.145989
  18        0.169036
  19        0.323151
  20        0.789846
