 vasp.5.3.2 13Sep12 (build Oct  1 2014 13:46:58) complex                        
  
 executed on             LinuxIFC date 2015.11.22  18:50:13
 running on   20 total cores
 distrk:  each k-point on   20 cores,    1 groups
 distr:  one band on NCORES_PER_BAND=  20 cores,    1 groups


--------------------------------------------------------------------------------------------------------


 INCAR:
 POTCAR:    PAW_PBE O 08Apr2002                   
 POTCAR:    PAW_PBE H 15Jun2001                   
 POTCAR:    PAW_PBE C 08Apr2002                   

 ----------------------------------------------------------------------------- 
|                                                                             |
|           W    W    AA    RRRRR   N    N  II  N    N   GGGG   !!!           |
|           W    W   A  A   R    R  NN   N  II  NN   N  G    G  !!!           |
|           W    W  A    A  R    R  N N  N  II  N N  N  G       !!!           |
|           W WW W  AAAAAA  RRRRR   N  N N  II  N  N N  G  GGG   !            |
|           WW  WW  A    A  R   R   N   NN  II  N   NN  G    G                |
|           W    W  A    A  R    R  N    N  II  N    N   GGGG   !!!           |
|                                                                             |
|      For optimal performance we recommend that you set                      |
|        NPAR = 4 - approx SQRT( number of cores)                             |
|      (number of cores/NPAR must be integer)                                 |
|      This setting will greatly improve the performance of VASP for DFT.     |
|      The default NPAR=number of cores might be grossly inefficient          |
|      on modern multi-core architectures or massively parallel machines.     |
|      Do your own testing.                                                   |
|      Unfortunately you need to use the default for hybrid, GW and RPA       |
|      calculations.                                                          |
|                                                                             |
 ----------------------------------------------------------------------------- 

 POTCAR:    PAW_PBE O 08Apr2002                   
  local pseudopotential read in
  partial core-charges read in
  partial kinetic energy density read in
  kinetic energy density of atom read in
  atomic valenz-charges read in
  non local Contribution for L=           0  read in
    real space projection operators read in
  non local Contribution for L=           0  read in
    real space projection operators read in
  non local Contribution for L=           1  read in
    real space projection operators read in
  non local Contribution for L=           1  read in
    real space projection operators read in
    PAW grid and wavefunctions read in
 
   number of l-projection  operators is LMAX  =           4
   number of lm-projection operators is LMMAX =           8
 
 POTCAR:    PAW_PBE H 15Jun2001                   
  local pseudopotential read in
  atomic valenz-charges read in
  non local Contribution for L=           0  read in
    real space projection operators read in
  non local Contribution for L=           0  read in
    real space projection operators read in
  non local Contribution for L=           1  read in
    real space projection operators read in
    PAW grid and wavefunctions read in
 
   number of l-projection  operators is LMAX  =           3
   number of lm-projection operators is LMMAX =           5
 
 POTCAR:    PAW_PBE C 08Apr2002                   
  local pseudopotential read in
  partial core-charges read in
  partial kinetic energy density read in
  atomic valenz-charges read in
  non local Contribution for L=           0  read in
    real space projection operators read in
  non local Contribution for L=           0  read in
    real space projection operators read in
  non local Contribution for L=           1  read in
    real space projection operators read in
  non local Contribution for L=           1  read in
    real space projection operators read in
    PAW grid and wavefunctions read in
 
   number of l-projection  operators is LMAX  =           4
   number of lm-projection operators is LMMAX =           8
 
 Optimization of the real space projectors (new method)

 maximal supplied QI-value         = 24.76
 optimisation between [QCUT,QGAM] = [ 10.15, 20.30] = [ 28.85,115.39] Ry 
 Optimized for a Real-space Cutoff    1.51 Angstroem

   l    n(q)    QCUT    max X(q) W(low)/X(q) W(high)/X(q)  e(spline) 
   0      9    10.150    20.381    0.17E-03    0.18E-03    0.41E-06
   0      9    10.150    15.268    0.18E-03    0.20E-03    0.43E-06
   1      9    10.150     5.964    0.16E-03    0.20E-03    0.36E-06
   1      9    10.150     5.382    0.13E-03    0.16E-03    0.33E-06
 Optimization of the real space projectors (new method)

 maximal supplied QI-value         = 34.20
 optimisation between [QCUT,QGAM] = [  9.92, 20.18] = [ 27.55,114.04] Ry 
 Optimized for a Real-space Cutoff    1.34 Angstroem

   l    n(q)    QCUT    max X(q) W(low)/X(q) W(high)/X(q)  e(spline) 
   0      8     9.919    19.460    0.16E-03    0.20E-03    0.36E-06
   0      8     9.919    12.209    0.16E-03    0.20E-03    0.35E-06
   1      8     9.919     4.655    0.19E-03    0.46E-03    0.40E-06
 Optimization of the real space projectors (new method)

 maximal supplied QI-value         = 25.13
 optimisation between [QCUT,QGAM] = [ 10.05, 20.36] = [ 28.30,116.06] Ry 
 Optimized for a Real-space Cutoff    1.51 Angstroem

   l    n(q)    QCUT    max X(q) W(low)/X(q) W(high)/X(q)  e(spline) 
   0      9    10.053   115.676    0.19E-03    0.21E-03    0.38E-06
   0      9    10.053    87.132    0.19E-03    0.21E-03    0.38E-06
   1      9    10.053     4.429    0.87E-04    0.11E-03    0.39E-06
   1      9    10.053     2.733    0.59E-04    0.62E-04    0.43E-06
  PAW_PBE O 08Apr2002                   :
 energy of atom  1       EATOM= -432.3788
 kinetic energy error for atom=    0.1156 (will be added to EATOM!!)
  PAW_PBE H 15Jun2001                   :
 energy of atom  2       EATOM=  -12.4884
 kinetic energy error for atom=    0.0098 (will be added to EATOM!!)
  PAW_PBE C 08Apr2002                   :
 energy of atom  3       EATOM= -147.1560
 kinetic energy error for atom=    0.0288 (will be added to EATOM!!)
 
 
 POSCAR: O  H  C                                 
  positions in direct lattice
  velocities in cartesian coordinates
 exchange correlation table for  LEXCH =        8
   RHO(1)=    0.500       N(1)  =     2000
   RHO(2)=  100.500       N(2)  =     4000

 VTST: version 3.0, (09/19/12)

 CHAIN: initializing optimizer
 
 OPT: Using VASP QUASI-newton optimizer
 CHAIN: Read ICHAIN            0
 
 POSCAR: O  H  C                                 
  positions in direct lattice
  velocities in cartesian coordinates
 


--------------------------------------------------------------------------------------------------------


 ion  position               nearest neighbor table
   1  0.419  0.538  0.635-  10 1.42  11 1.43
   2  0.356  0.463  0.607-  10 1.10
   3  0.356  0.480  0.695-  10 1.11
   4  0.425  0.436  0.658-  10 1.11
   5  0.498  0.521  0.701-  11 1.11
   6  0.430  0.569  0.733-  11 1.11
   7  0.527  0.643  0.708-  12 1.10
   8  0.460  0.663  0.654-  12 1.10
   9  0.528  0.615  0.624-  12 1.10
  10  0.388  0.476  0.650-   2 1.10   3 1.11   4 1.11   1 1.42
  11  0.461  0.561  0.688-   5 1.11   6 1.11   1 1.43  12 1.51
  12  0.496  0.624  0.667-   9 1.10   8 1.10   7 1.10  11 1.51
 

IMPORTANT INFORMATION: All symmetrisations will be switched off!
NOSYMM: (Re-)initialisation of all symmetry stuff for point group C_1.

 
 
 KPOINTS: K-Point Grid. Created by Vassili Vorotni

Automatic generation of k-mesh.
Space group operators:
 irot       det(A)        alpha          n_x          n_y          n_z        tau_x        tau_y        tau_z
    1     1.000000     0.000001     1.000000     0.000000     0.000000     0.000000     0.000000     0.000000
 
 Subroutine IBZKPT returns following result:
 ===========================================
 
 Found      1 irreducible k-points:
 
 Following reciprocal coordinates:
            Coordinates               Weight
  0.000000  0.000000  0.000000      1.000000
 
 Following cartesian coordinates:
            Coordinates               Weight
  0.000000  0.000000  0.000000      1.000000
 


--------------------------------------------------------------------------------------------------------




 Dimension of arrays:
   k-points           NKPTS =      1   k-points in BZ     NKDIM =      1   number of bands    NBANDS=     20
   number of dos      NEDOS =    301   number of ions     NIONS =     12
   non local maximal  LDIM  =      4   non local SUM 2l+1 LMDIM =      8
   total plane-waves  NPLWV = 941192
   max r-space proj   IRMAX =   1741   max aug-charges    IRDMAX=   1161
   dimension x,y,z NGX =    98 NGY =   98 NGZ =   98
   dimension x,y,z NGXF=   168 NGYF=  168 NGZF=  168
   support grid    NGXF=   168 NGYF=  168 NGZF=  168
   ions per type =               1   8   3
 NGX,Y,Z   is equivalent  to a cutoff of   8.15,  8.15,  8.15 a.u.
 NGXF,Y,Z  is equivalent  to a cutoff of  13.96, 13.96, 13.96 a.u.


 I would recommend the setting:
   dimension x,y,z NGX =    98 NGY =   98 NGZ =   98
 SYSTEM =  unknown system                          
 POSCAR =  O  H  C                                 

 Startparameter for this run:
   NWRITE =      1    write-flag & timer
   PREC   = med       normal or accurate (medium, high low for compatibility)
   ISTART =      0    job   : 0-new  1-cont  2-samecut
   ICHARG =      2    charge: 1-file 2-atom 10-const
   ISPIN  =      1    spin polarized calculation?
   LNONCOLLINEAR =      F non collinear calculations
   LSORBIT =      F    spin-orbit coupling
   INIWAV =      1    electr: 0-lowe 1-rand  2-diag
   LASPH  =      F    aspherical Exc in radial PAW
   METAGGA=      F    non-selfconsistent MetaGGA calc.

 Electronic Relaxation 1
   ENCUT  =  400.0 eV  29.40 Ry    5.42 a.u.  32.61 32.61 32.61*2*pi/ulx,y,z
   ENINI  =  400.0     initial cutoff
   ENAUG  =  644.9 eV  augmentation charge cutoff
   NELM   =    400;   NELMIN=  2; NELMDL=-10     # of ELM steps 
   EDIFF  = 0.1E-05   stopping-criterion for ELM
   LREAL  =      T    real-space projection
   NLSPLINE    = F    spline interpolate recip. space projectors
   LCOMPAT=      F    compatible to vasp.4.4
   GGA_COMPAT  = T    GGA compatible to vasp.4.4-vasp.4.6
   LMAXPAW     = -100 max onsite density
   LMAXMIX     =    2 max onsite mixed and CHGCAR
   VOSKOWN=      1    Vosko Wilk Nusair interpolation
   ROPT   =   -0.00020  -0.00020  -0.00020
 Ionic relaxation
   EDIFFG = -.1E-01   stopping-criterion for IOM
   NSW    =    200    number of steps for IOM
   NBLOCK =      1;   KBLOCK =    200    inner block; outer block 
   IBRION =      1    ionic relax: 0-MD 1-quasi-New 2-CG
   NFREE  =      2    steps in history (QN), initial steepest desc. (CG)
   ISIF   =      2    stress and relaxation
   IWAVPR =     11    prediction:  0-non 1-charg 2-wave 3-comb
   ISYM   =      0    0-nonsym 1-usesym 2-fastsym
   LCORR  =      T    Harris-Foulkes like correction to forces

   POTIM  = 0.5000    time-step for ionic-motion
   TEIN   =    0.0    initial temperature
   TEBEG  =    0.0;   TEEND  =   0.0 temperature during run
   SMASS  =  -3.00    Nose mass-parameter (am)
   estimated Nose-frequenzy (Omega)   =  0.10E-29 period in steps =****** mass=  -0.914E-26a.u.
   SCALEE = 1.0000    scale energy and forces
   NPACO  =    256;   APACO  = 16.0  distance and # of slots for P.C.
   PSTRESS=    0.0 pullay stress

  Mass of Ions in am
   POMASS =  16.00  1.00 12.01
  Ionic Valenz
   ZVAL   =   6.00  1.00  4.00
  Atomic Wigner-Seitz radii
   RWIGS  =  -1.00 -1.00 -1.00
  virtual crystal weights 
   VCA    =   1.00  1.00  1.00
   NELECT =      26.0000    total number of electrons
   NUPDOWN=      -1.0000    fix difference up-down

 DOS related values:
   EMIN   =  10.00;   EMAX   =-10.00  energy-range for DOS
   EFERMI =   0.00
   ISMEAR =     1;   SIGMA  =   0.01  broadening in eV -4-tet -1-fermi 0-gaus

 Electronic relaxation 2 (details)
   IALGO  =     68    algorithm
   LDIAG  =      T    sub-space diagonalisation (order eigenvalues)
   LSUBROT=      T    optimize rotation matrix (better conditioning)
   TURBO    =      0    0=normal 1=particle mesh
   IRESTART =      0    0=no restart 2=restart with 2 vectors
   NREBOOT  =      0    no. of reboots
   NMIN     =      0    reboot dimension
   EREF     =   0.00    reference energy to select bands
   IMIX   =      4    mixing-type and parameters
     AMIX     =   0.40;   BMIX     =  1.00
     AMIX_MAG =   1.60;   BMIX_MAG =  1.00
     AMIN     =   0.10
     WC   =   100.;   INIMIX=   1;  MIXPRE=   1;  MAXMIX= -45

 Intra band minimization:
   WEIMIN = 0.0010     energy-eigenvalue tresh-hold
   EBREAK =  0.12E-07  absolut break condition
   DEPER  =   0.30     relativ break condition  

   TIME   =   0.40     timestep for ELM

  volume/ion in A,a.u.               =     666.67      4498.89
  Fermi-wavevector in a.u.,A,eV,Ry     =   0.242495  0.458249  0.800074  0.058804
  Thomas-Fermi vector in A             =   1.050038
 
 Write flags
   LWAVE  =      F    write WAVECAR
   LCHARG =      F    write CHGCAR
   LVTOT  =      F    write LOCPOT, total local potential
   LVHAR  =      F    write LOCPOT, Hartree potential only
   LELF   =      F    write electronic localiz. function (ELF)
   LORBIT =      0    0 simple, 1 ext, 2 COOP (PROOUT)


 Dipole corrections
   LMONO  =      F    monopole corrections only (constant potential shift)
   LDIPOL =      F    correct potential (dipole corrections)
   IDIPOL =      0    1-x, 2-y, 3-z, 4-all directions 
   EPSILON=  1.0000000 bulk dielectric constant

 Exchange correlation treatment:
   GGA     =    --    GGA type
   LEXCH   =     8    internal setting for exchange type
   VOSKOWN=      1    Vosko Wilk Nusair interpolation
   LHFCALC =     F    Hartree Fock is set to
   LHFONE  =     F    Hartree Fock one center treatment
   AEXX    =    0.0000 exact exchange contribution

 Linear response parameters
   LEPSILON=     F    determine dielectric tensor
   LRPA    =     F    only Hartree local field effects (RPA)
   LNABLA  =     F    use nabla operator in PAW spheres
   LVEL    =     F    velocity operator in full k-point grid
   LINTERFAST=   F  fast interpolation
   KINTER  =     0    interpolate to denser k-point grid
   CSHIFT  =0.1000    complex shift for real part using Kramers Kronig
   OMEGAMAX=  -1.0    maximum frequency
   DEG_THRESHOLD= 0.2000000E-02 threshold for treating states as degnerate
   RTIME   =    0.100 relaxation time in fs

 Orbital magnetization related:
   ORBITALMAG=     F  switch on orbital magnetization
   LCHIMAG   =     F  perturbation theory with respect to B field
   DQ        =  0.001000  dq finite difference perturbation B field



--------------------------------------------------------------------------------------------------------


 quasi-Newton-method for relaxation of ions
   using selective dynamics as specified on POSCAR
 charge density and potential will be updated during run
 non-spin polarized calculation
 RMM-DIIS sequential band-by-band and
  variant of blocked Davidson during initial phase
 perform sub-space diagonalisation
    before iterative eigenvector-optimisation
 modified Broyden-mixing scheme, WC =      100.0
 initial mixing is a Kerker type mixing with AMIX =  0.4000 and BMIX =      1.0000
 Hartree-type preconditioning will be used
 using additional bands            7
 real space projection scheme for non local part
 use partial core corrections
 calculate Harris-corrections to forces 
   (improved forces if not selfconsistent)
 use gradient corrections 
 use of overlap-Matrix (Vanderbilt PP)
 Methfessel and Paxton  Order N= 1 SIGMA  =   0.01


--------------------------------------------------------------------------------------------------------


  energy-cutoff  :      400.00
  volume of cell :     8000.00
      direct lattice vectors                 reciprocal lattice vectors
    16.329931619 -8.164965809 -8.164965809     0.040824829 -0.020412415 -0.020412415
     0.000000000 14.142135624-14.142135624     0.000000000  0.035355339 -0.035355339
    11.547005384 11.547005384 11.547005384     0.028867513  0.028867513  0.028867513

  length of vectors
    20.000000000 20.000000000 20.000000000     0.050000000  0.050000000  0.050000000


 
 k-points in units of 2pi/SCALE and weight: K-Point Grid. Created by Vassili Vorotni
   0.00000000  0.00000000  0.00000000       1.000
 
 k-points in reciprocal lattice and weights: K-Point Grid. Created by Vassili Vorotni
   0.00000000  0.00000000  0.00000000       1.000
 
 position of ions in fractional coordinates (direct lattice) 
   0.41937505  0.53800663  0.63470434
   0.35607785  0.46306320  0.60725839
   0.35647354  0.48009993  0.69546304
   0.42515216  0.43602353  0.65795398
   0.49773824  0.52110854  0.70105230
   0.42982485  0.56927599  0.73337966
   0.52732333  0.64291965  0.70830298
   0.45975244  0.66317583  0.65374176
   0.52849615  0.61506539  0.62358887
   0.38791709  0.47628884  0.64999191
   0.46084864  0.56054982  0.68816679
   0.49612352  0.62416788  0.66706786
 
 position of ions in cartesian coordinates  (Angst):
  14.17730033 11.51331411 -3.70381122
  12.82674295 10.65335503 -2.44405019
  13.85170399 11.90955954 -1.66971718
  14.54010390 10.29234916 -2.04025871
  16.22308617 11.40062666 -3.33854870
  15.48734929 13.00961204 -3.09194459
  16.78993235 12.96545824 -5.21905546
  15.05648561 13.17361919 -5.58382583
  15.83089003 11.58376927 -5.81290719
  13.84011971 11.07387168 -2.39761100
  15.47189237 12.11082386 -3.74391942
  15.80429933 12.47887133 -5.17526227
 


--------------------------------------------------------------------------------------------------------


 k-point  1 :   0.0000 0.0000 0.0000  plane waves:  145165

 maximum and minimum number of plane-waves per node :      7271     7241

 maximum number of plane-waves:    145165
 maximum index in each direction: 
   IXMAX=   32   IYMAX=   32   IZMAX=   32
   IXMIN=  -32   IYMIN=  -32   IZMIN=  -32

 WARNING: aliasing errors must be expected set NGX to 130 to avoid them
 WARNING: aliasing errors must be expected set NGY to 130 to avoid them
 WARNING: aliasing errors must be expected set NGZ to 130 to avoid them
 aliasing errors are usually negligible using standard VASP settings
 and one can safely disregard these warnings

 real space projection operators:
  total allocation   :        769.70 KBytes
  max/ min on nodes  :         45.48         32.71


 parallel 3D FFT for wavefunctions:
    minimum data exchange during FFTs selected (reduces bandwidth)
 parallel 3D FFT for charge:
    minimum data exchange during FFTs selected (reduces bandwidth)


 total amount of memory used by VASP on root node    61211. kBytes
========================================================================

   base      :      30000. kBytes
   nonlr-proj:        394. kBytes
   fftplans  :      10155. kBytes
   grid      :      18330. kBytes
   one-center:          3. kBytes
   wavefun   :       2329. kBytes
 
 Broyden mixing: mesh for mixing (old mesh)
   NGX = 65   NGY = 65   NGZ = 65
  (NGX  =168   NGY  =168   NGZ  =168)
  gives a total of 274625 points

 initial charge density was supplied:
 charge density of overlapping atoms calculated
 number of electron      26.0000000 magnetization 
 keeping initial charge density in first step


--------------------------------------------------------------------------------------------------------


 Maximum index for non-local projection operator          164
 Maximum index for augmentation-charges           87 (set IRDMAX)


--------------------------------------------------------------------------------------------------------


 First call to EWALD:  gamma=   0.089
 Maximum number of real-space cells 3x 3x 3
 Maximum number of reciprocal cells 3x 3x 3

 FEWALD executed in parallel
    FEWALD:  cpu time    0.00: real time    0.00


----------------------------------------- Iteration    1(   1)  ---------------------------------------


    POTLOK:  cpu time    0.41: real time    0.41
    SETDIJ:  cpu time    0.00: real time    0.00
     EDDAV:  cpu time    4.65: real time    5.79
       DOS:  cpu time    0.00: real time    0.00
    --------------------------------------------
      LOOP:  cpu time    5.07: real time    6.22

 eigenvalue-minimisations  :    56
 total energy-change (2. order) : 0.1771175E+03  (-0.4707220E+03)
 number of electron      26.0000000 magnetization 
 augmentation part       26.0000000 magnetization 

 Free energy of the ion-electron system (eV)
  ---------------------------------------------------
  alpha Z        PSCENC =         0.33883997
  Ewald energy   TEWEN  =      1442.22754155
  -1/2 Hartree   DENC   =     -2124.23128079
  -exchange  EXHF       =         0.00000000
  -V(xc)+E(xc)   XCENC  =        85.66689047
  PAW double counting   =       689.18783552     -692.76574588
  entropy T*S    EENTRO =         0.00057979
  eigenvalues    EBANDS =      -196.78113446
  atomic energy  EATOM  =       973.47392897
  ---------------------------------------------------
  free energy    TOTEN  =       177.11745514 eV

  energy without entropy =      177.11687535  energy(sigma->0) =      177.11726187


--------------------------------------------------------------------------------------------------------




----------------------------------------- Iteration    1(   2)  ---------------------------------------


     EDDAV:  cpu time    1.28: real time    1.28
       DOS:  cpu time    0.00: real time    0.00
    --------------------------------------------
      LOOP:  cpu time    1.28: real time    1.30

 eigenvalue-minimisations  :    68
 total energy-change (2. order) :-0.1447042E+03  (-0.1431849E+03)
 number of electron      26.0000000 magnetization 
 augmentation part       26.0000000 magnetization 

 Free energy of the ion-electron system (eV)
  ---------------------------------------------------
  alpha Z        PSCENC =         0.33883997
  Ewald energy   TEWEN  =      1442.22754155
  -1/2 Hartree   DENC   =     -2124.23128079
  -exchange  EXHF       =         0.00000000
  -V(xc)+E(xc)   XCENC  =        85.66689047
  PAW double counting   =       689.18783552     -692.76574588
  entropy T*S    EENTRO =         0.00057979
  eigenvalues    EBANDS =      -341.48529893
  atomic energy  EATOM  =       973.47392897
  ---------------------------------------------------
  free energy    TOTEN  =        32.41329067 eV

  energy without entropy =       32.41271088  energy(sigma->0) =       32.41309741


--------------------------------------------------------------------------------------------------------




----------------------------------------- Iteration    1(   3)  ---------------------------------------


     EDDAV:  cpu time    1.21: real time    1.21
       DOS:  cpu time    0.00: real time    0.00
    --------------------------------------------
      LOOP:  cpu time    1.21: real time    1.24

 eigenvalue-minimisations  :    64
 total energy-change (2. order) :-0.8847857E+02  (-0.8825166E+02)
 number of electron      26.0000000 magnetization 
 augmentation part       26.0000000 magnetization 

 Free energy of the ion-electron system (eV)
  ---------------------------------------------------
  alpha Z        PSCENC =         0.33883997
  Ewald energy   TEWEN  =      1442.22754155
  -1/2 Hartree   DENC   =     -2124.23128079
  -exchange  EXHF       =         0.00000000
  -V(xc)+E(xc)   XCENC  =        85.66689047
  PAW double counting   =       689.18783552     -692.76574588
  entropy T*S    EENTRO =         0.00000000
  eigenvalues    EBANDS =      -429.96329167
  atomic energy  EATOM  =       973.47392897
  ---------------------------------------------------
  free energy    TOTEN  =       -56.06528187 eV

  energy without entropy =      -56.06528187  energy(sigma->0) =      -56.06528187


--------------------------------------------------------------------------------------------------------




----------------------------------------- Iteration    1(   4)  ---------------------------------------


     EDDAV:  cpu time    0.95: real time    0.95
       DOS:  cpu time    0.00: real time    0.00
    --------------------------------------------
      LOOP:  cpu time    0.95: real time    0.97

 eigenvalue-minimisations  :    48
 total energy-change (2. order) :-0.1304744E+02  (-0.1303023E+02)
 number of electron      26.0000000 magnetization 
 augmentation part       26.0000000 magnetization 

 Free energy of the ion-electron system (eV)
  ---------------------------------------------------
  alpha Z        PSCENC =         0.33883997
  Ewald energy   TEWEN  =      1442.22754155
  -1/2 Hartree   DENC   =     -2124.23128079
  -exchange  EXHF       =         0.00000000
  -V(xc)+E(xc)   XCENC  =        85.66689047
  PAW double counting   =       689.18783552     -692.76574588
  entropy T*S    EENTRO =         0.00057979
  eigenvalues    EBANDS =      -443.01131276
  atomic energy  EATOM  =       973.47392897
  ---------------------------------------------------
  free energy    TOTEN  =       -69.11272317 eV

  energy without entropy =      -69.11330296  energy(sigma->0) =      -69.11291643


--------------------------------------------------------------------------------------------------------




----------------------------------------- Iteration    1(   5)  ---------------------------------------


     EDDAV:  cpu time    1.21: real time    1.21
       DOS:  cpu time    0.00: real time    0.00
    --------------------------------------------
      LOOP:  cpu time    1.21: real time    1.24

 eigenvalue-minimisations  :    64
 total energy-change (2. order) :-0.4365384E+00  (-0.4363500E+00)
 number of electron      26.0000000 magnetization 
 augmentation part       26.0000000 magnetization 

 Free energy of the ion-electron system (eV)
  ---------------------------------------------------
  alpha Z        PSCENC =         0.33883997
  Ewald energy   TEWEN  =      1442.22754155
  -1/2 Hartree   DENC   =     -2124.23128079
  -exchange  EXHF       =         0.00000000
  -V(xc)+E(xc)   XCENC  =        85.66689047
  PAW double counting   =       689.18783552     -692.76574588
  entropy T*S    EENTRO =         0.00057979
  eigenvalues    EBANDS =      -443.44785115
  atomic energy  EATOM  =       973.47392897
  ---------------------------------------------------
  free energy    TOTEN  =       -69.54926155 eV

  energy without entropy =      -69.54984134  energy(sigma->0) =      -69.54945481


--------------------------------------------------------------------------------------------------------




----------------------------------------- Iteration    1(   6)  ---------------------------------------


     EDDAV:  cpu time    1.08: real time    1.08
       DOS:  cpu time    0.00: real time    0.00
    --------------------------------------------
      LOOP:  cpu time    1.08: real time    1.10

 eigenvalue-minimisations  :    56
 total energy-change (2. order) :-0.1919786E-02  (-0.1339699E-02)
 number of electron      26.0000000 magnetization 
 augmentation part       26.0000000 magnetization 

 Free energy of the ion-electron system (eV)
  ---------------------------------------------------
  alpha Z        PSCENC =         0.33883997
  Ewald energy   TEWEN  =      1442.22754155
  -1/2 Hartree   DENC   =     -2124.23128079
  -exchange  EXHF       =         0.00000000
  -V(xc)+E(xc)   XCENC  =        85.66689047
  PAW double counting   =       689.18783552     -692.76574588
  entropy T*S    EENTRO =         0.00000000
  eigenvalues    EBANDS =      -443.44919114
  atomic energy  EATOM  =       973.47392897
  ---------------------------------------------------
  free energy    TOTEN  =       -69.55118134 eV

  energy without entropy =      -69.55118134  energy(sigma->0) =      -69.55118134


--------------------------------------------------------------------------------------------------------




----------------------------------------- Iteration    1(   7)  ---------------------------------------


     EDDAV:  cpu time    1.21: real time    1.21
       DOS:  cpu time    0.00: real time    0.00
    --------------------------------------------
      LOOP:  cpu time    1.22: real time    1.24

 eigenvalue-minimisations  :    64
 total energy-change (2. order) : 0.5427693E-03  (-0.3701587E-04)
 number of electron      26.0000000 magnetization 
 augmentation part       26.0000000 magnetization 

 Free energy of the ion-electron system (eV)
  ---------------------------------------------------
  alpha Z        PSCENC =         0.33883997
  Ewald energy   TEWEN  =      1442.22754155
  -1/2 Hartree   DENC   =     -2124.23128079
  -exchange  EXHF       =         0.00000000
  -V(xc)+E(xc)   XCENC  =        85.66689047
  PAW double counting   =       689.18783552     -692.76574588
  entropy T*S    EENTRO =         0.00057979
  eigenvalues    EBANDS =      -443.44922816
  atomic energy  EATOM  =       973.47392897
  ---------------------------------------------------
  free energy    TOTEN  =       -69.55063857 eV

  energy without entropy =      -69.55121836  energy(sigma->0) =      -69.55083183


--------------------------------------------------------------------------------------------------------




----------------------------------------- Iteration    1(   8)  ---------------------------------------


     EDDAV:  cpu time    1.08: real time    1.08
       DOS:  cpu time    0.00: real time    0.00
    --------------------------------------------
      LOOP:  cpu time    1.08: real time    1.10

 eigenvalue-minimisations  :    56
 total energy-change (2. order) :-0.1738404E-05  (-0.1740146E-05)
 number of electron      26.0000000 magnetization 
 augmentation part       26.0000000 magnetization 

 Free energy of the ion-electron system (eV)
  ---------------------------------------------------
  alpha Z        PSCENC =         0.33883997
  Ewald energy   TEWEN  =      1442.22754155
  -1/2 Hartree   DENC   =     -2124.23128079
  -exchange  EXHF       =         0.00000000
  -V(xc)+E(xc)   XCENC  =        85.66689047
  PAW double counting   =       689.18783552     -692.76574588
  entropy T*S    EENTRO =         0.00057979
  eigenvalues    EBANDS =      -443.44922990
  atomic energy  EATOM  =       973.47392897
  ---------------------------------------------------
  free energy    TOTEN  =       -69.55064031 eV

  energy without entropy =      -69.55122010  energy(sigma->0) =      -69.55083357


--------------------------------------------------------------------------------------------------------




----------------------------------------- Iteration    1(   9)  ---------------------------------------


     EDDAV:  cpu time    1.09: real time    1.09
       DOS:  cpu time    0.00: real time    0.00
    --------------------------------------------
      LOOP:  cpu time    1.09: real time    1.11

 eigenvalue-minimisations  :    56
 total energy-change (2. order) :-0.7868925E-07  (-0.7764990E-07)
 number of electron      26.0000000 magnetization 
 augmentation part       26.0000000 magnetization 

 Free energy of the ion-electron system (eV)
  ---------------------------------------------------
  alpha Z        PSCENC =         0.33883997
  Ewald energy   TEWEN  =      1442.22754155
  -1/2 Hartree   DENC   =     -2124.23128079
  -exchange  EXHF       =         0.00000000
  -V(xc)+E(xc)   XCENC  =        85.66689047
  PAW double counting   =       689.18783552     -692.76574588
  entropy T*S    EENTRO =         0.00057979
  eigenvalues    EBANDS =      -443.44922998
  atomic energy  EATOM  =       973.47392897
  ---------------------------------------------------
  free energy    TOTEN  =       -69.55064038 eV

  energy without entropy =      -69.55122018  energy(sigma->0) =      -69.55083365


--------------------------------------------------------------------------------------------------------




----------------------------------------- Iteration    1(  10)  ---------------------------------------


     EDDAV:  cpu time    0.95: real time    0.95
       DOS:  cpu time    0.00: real time    0.00
    CHARGE:  cpu time    0.06: real time    0.06
    MIXING:  cpu time    0.02: real time    0.02
    --------------------------------------------
      LOOP:  cpu time    1.03: real time    1.05

 eigenvalue-minimisations  :    48
 total energy-change (2. order) :-0.1551825E-07  (-0.1631653E-07)
 number of electron      25.9999908 magnetization 
 augmentation part        1.2232105 magnetization 

 Broyden mixing:
  rms(total) = 0.13357E+01    rms(broyden)= 0.13343E+01
  rms(prec ) = 0.14629E+01
  weight for this iteration     100.00

 Free energy of the ion-electron system (eV)
  ---------------------------------------------------
  alpha Z        PSCENC =         0.33883997
  Ewald energy   TEWEN  =      1442.22754155
  -1/2 Hartree   DENC   =     -2124.23128079
  -exchange  EXHF       =         0.00000000
  -V(xc)+E(xc)   XCENC  =        85.66689047
  PAW double counting   =       689.18783552     -692.76574588
  entropy T*S    EENTRO =         0.00057979
  eigenvalues    EBANDS =      -443.44923000
  atomic energy  EATOM  =       973.47392897
  ---------------------------------------------------
  free energy    TOTEN  =       -69.55064040 eV

  energy without entropy =      -69.55122019  energy(sigma->0) =      -69.55083366


--------------------------------------------------------------------------------------------------------




----------------------------------------- Iteration    1(  11)  ---------------------------------------


    POTLOK:  cpu time    0.41: real time    0.41
    SETDIJ:  cpu time    0.00: real time    0.00
    EDDIAG:  cpu time    0.11: real time    0.11
  RMM-DIIS:  cpu time    0.67: real time    0.67
    ORTHCH:  cpu time    0.00: real time    0.00
       DOS:  cpu time    0.00: real time    0.00
    CHARGE:  cpu time    0.06: real time    0.06
    MIXING:  cpu time    0.02: real time    0.02
    --------------------------------------------
      LOOP:  cpu time    1.28: real time    1.30

 eigenvalue-minimisations  :    40
 total energy-change (2. order) : 0.5097862E+01  (-0.8796632E+00)
 number of electron      25.9999915 magnetization 
 augmentation part        1.1450397 magnetization 

 Broyden mixing:
  rms(total) = 0.70639E+00    rms(broyden)= 0.70629E+00
  rms(prec ) = 0.76008E+00
  weight for this iteration     100.00

 eigenvalues of (default mixing * dielectric matrix)
  average eigenvalue GAMMA=   1.5689
  1.5689

 Free energy of the ion-electron system (eV)
  ---------------------------------------------------
  alpha Z        PSCENC =         0.33883997
  Ewald energy   TEWEN  =      1442.22754155
  -1/2 Hartree   DENC   =     -2178.74354945
  -exchange  EXHF       =         0.00000000
  -V(xc)+E(xc)   XCENC  =        88.47749192
  PAW double counting   =      1069.63537270    -1073.74478787
  entropy T*S    EENTRO =         0.00000000
  eigenvalues    EBANDS =      -386.11761615
  atomic energy  EATOM  =       973.47392897
  ---------------------------------------------------
  free energy    TOTEN  =       -64.45277835 eV

  energy without entropy =      -64.45277835  energy(sigma->0) =      -64.45277835


--------------------------------------------------------------------------------------------------------




----------------------------------------- Iteration    1(  12)  ---------------------------------------


    POTLOK:  cpu time    0.41: real time    0.41
    SETDIJ:  cpu time    0.00: real time    0.00
    EDDIAG:  cpu time    0.10: real time    0.11
  RMM-DIIS:  cpu time    0.67: real time    0.67
    ORTHCH:  cpu time    0.00: real time    0.00
       DOS:  cpu time    0.00: real time    0.00
    CHARGE:  cpu time    0.06: real time    0.06
    MIXING:  cpu time    0.02: real time    0.02
    --------------------------------------------
      LOOP:  cpu time    1.28: real time    1.30

 eigenvalue-minimisations  :    40
 total energy-change (2. order) : 0.1183610E+01  (-0.3735916E+00)
 number of electron      25.9999917 magnetization 
 augmentation part        1.1018965 magnetization 

 Broyden mixing:
  rms(total) = 0.30297E+00    rms(broyden)= 0.30284E+00
  rms(prec ) = 0.32076E+00
  weight for this iteration     100.00

 eigenvalues of (default mixing * dielectric matrix)
  average eigenvalue GAMMA=   1.8514
  1.5975  2.1052

 Free energy of the ion-electron system (eV)
  ---------------------------------------------------
  alpha Z        PSCENC =         0.33883997
  Ewald energy   TEWEN  =      1442.22754155
  -1/2 Hartree   DENC   =     -2219.15322755
  -exchange  EXHF       =         0.00000000
  -V(xc)+E(xc)   XCENC  =        90.83085894
  PAW double counting   =      1535.71924791    -1540.04223719
  entropy T*S    EENTRO =         0.00057979
  eigenvalues    EBANDS =      -346.66470115
  atomic energy  EATOM  =       973.47392897
  ---------------------------------------------------
  free energy    TOTEN  =       -63.26916877 eV

  energy without entropy =      -63.26974856  energy(sigma->0) =      -63.26936203


--------------------------------------------------------------------------------------------------------




----------------------------------------- Iteration    1(  13)  ---------------------------------------


    POTLOK:  cpu time    0.41: real time    0.41
    SETDIJ:  cpu time    0.00: real time    0.00
    EDDIAG:  cpu time    0.11: real time    0.11
  RMM-DIIS:  cpu time    0.68: real time    0.68
    ORTHCH:  cpu time    0.00: real time    0.00
       DOS:  cpu time    0.00: real time    0.00
    CHARGE:  cpu time    0.06: real time    0.06
    MIXING:  cpu time    0.02: real time    0.02
    --------------------------------------------
      LOOP:  cpu time    1.30: real time    1.32

 eigenvalue-minimisations  :    41
 total energy-change (2. order) : 0.2095596E+00  (-0.3751146E-01)
 number of electron      25.9999916 magnetization 
 augmentation part        1.0985558 magnetization 

 Broyden mixing:
  rms(total) = 0.40445E-01    rms(broyden)= 0.40394E-01
  rms(prec ) = 0.57407E-01
  weight for this iteration     100.00

 eigenvalues of (default mixing * dielectric matrix)
  average eigenvalue GAMMA=   1.6996
  1.2557  2.2245  1.6187

 Free energy of the ion-electron system (eV)
  ---------------------------------------------------
  alpha Z        PSCENC =         0.33883997
  Ewald energy   TEWEN  =      1442.22754155
  -1/2 Hartree   DENC   =     -2231.01349780
  -exchange  EXHF       =         0.00000000
  -V(xc)+E(xc)   XCENC  =        91.66684783
  PAW double counting   =      1793.47798460    -1797.70499151
  entropy T*S    EENTRO =         0.00000000
  eigenvalues    EBANDS =      -335.52626281
  atomic energy  EATOM  =       973.47392897
  ---------------------------------------------------
  free energy    TOTEN  =       -63.05960920 eV

  energy without entropy =      -63.05960920  energy(sigma->0) =      -63.05960920


--------------------------------------------------------------------------------------------------------




----------------------------------------- Iteration    1(  14)  ---------------------------------------


    POTLOK:  cpu time    0.41: real time    0.41
    SETDIJ:  cpu time    0.00: real time    0.00
    EDDIAG:  cpu time    0.10: real time    0.10
  RMM-DIIS:  cpu time    0.70: real time    0.70
    ORTHCH:  cpu time    0.00: real time    0.00
       DOS:  cpu time    0.00: real time    0.00
    CHARGE:  cpu time    0.06: real time    0.06
    MIXING:  cpu time    0.02: real time    0.02
    --------------------------------------------
      LOOP:  cpu time    1.31: real time    1.33

 eigenvalue-minimisations  :    42
 total energy-change (2. order) : 0.1687693E-01  (-0.3346914E-02)
 number of electron      25.9999917 magnetization 
 augmentation part        1.0941097 magnetization 

 Broyden mixing:
  rms(total) = 0.26252E-01    rms(broyden)= 0.26236E-01
  rms(prec ) = 0.38968E-01
  weight for this iteration     100.00

 eigenvalues of (default mixing * dielectric matrix)
  average eigenvalue GAMMA=   1.7808
  1.1915  1.3352  2.2981  2.2981

 Free energy of the ion-electron system (eV)
  ---------------------------------------------------
  alpha Z        PSCENC =         0.33883997
  Ewald energy   TEWEN  =      1442.22754155
  -1/2 Hartree   DENC   =     -2235.93974988
  -exchange  EXHF       =         0.00000000
  -V(xc)+E(xc)   XCENC  =        91.84971317
  PAW double counting   =      1815.37815577    -1819.60012472
  entropy T*S    EENTRO =         0.00057979
  eigenvalues    EBANDS =      -330.77161690
  atomic energy  EATOM  =       973.47392897
  ---------------------------------------------------
  free energy    TOTEN  =       -63.04273227 eV

  energy without entropy =      -63.04331206  energy(sigma->0) =      -63.04292553


--------------------------------------------------------------------------------------------------------




----------------------------------------- Iteration    1(  15)  ---------------------------------------


    POTLOK:  cpu time    0.42: real time    0.42
    SETDIJ:  cpu time    0.00: real time    0.00
    EDDIAG:  cpu time    0.10: real time    0.11
  RMM-DIIS:  cpu time    0.67: real time    0.67
    ORTHCH:  cpu time    0.00: real time    0.00
       DOS:  cpu time    0.00: real time    0.00
    CHARGE:  cpu time    0.06: real time    0.06
    MIXING:  cpu time    0.02: real time    0.02
    --------------------------------------------
      LOOP:  cpu time    1.28: real time    1.31

 eigenvalue-minimisations  :    40
 total energy-change (2. order) : 0.3711492E-02  (-0.9522167E-03)
 number of electron      25.9999917 magnetization 
 augmentation part        1.0937386 magnetization 

 Broyden mixing:
  rms(total) = 0.13828E-01    rms(broyden)= 0.13826E-01
  rms(prec ) = 0.22775E-01
  weight for this iteration     100.00

 eigenvalues of (default mixing * dielectric matrix)
  average eigenvalue GAMMA=   1.7253
  2.5694  2.5694  1.3242  1.3242  0.8390

 Free energy of the ion-electron system (eV)
  ---------------------------------------------------
  alpha Z        PSCENC =         0.33883997
  Ewald energy   TEWEN  =      1442.22754155
  -1/2 Hartree   DENC   =     -2239.85886480
  -exchange  EXHF       =         0.00000000
  -V(xc)+E(xc)   XCENC  =        91.88255172
  PAW double counting   =      1791.81462894    -1796.02142474
  entropy T*S    EENTRO =         0.00057979
  eigenvalues    EBANDS =      -326.89680218
  atomic energy  EATOM  =       973.47392897
  ---------------------------------------------------
  free energy    TOTEN  =       -63.03902078 eV

  energy without entropy =      -63.03960057  energy(sigma->0) =      -63.03921404


--------------------------------------------------------------------------------------------------------




----------------------------------------- Iteration    1(  16)  ---------------------------------------


    POTLOK:  cpu time    0.42: real time    0.42
    SETDIJ:  cpu time    0.00: real time    0.00
    EDDIAG:  cpu time    0.10: real time    0.11
  RMM-DIIS:  cpu time    0.67: real time    0.67
    ORTHCH:  cpu time    0.00: real time    0.00
       DOS:  cpu time    0.00: real time    0.00
    CHARGE:  cpu time    0.06: real time    0.06
    MIXING:  cpu time    0.03: real time    0.03
    --------------------------------------------
      LOOP:  cpu time    1.29: real time    1.31

 eigenvalue-minimisations  :    40
 total energy-change (2. order) : 0.1821254E-02  (-0.2460652E-03)
 number of electron      25.9999917 magnetization 
 augmentation part        1.0931354 magnetization 

 Broyden mixing:
  rms(total) = 0.91345E-02    rms(broyden)= 0.91339E-02
  rms(prec ) = 0.15728E-01
  weight for this iteration     100.00

 eigenvalues of (default mixing * dielectric matrix)
  average eigenvalue GAMMA=   1.9468
  3.6032  2.2564  2.2564  0.9793  1.4165  1.1687

 Free energy of the ion-electron system (eV)
  ---------------------------------------------------
  alpha Z        PSCENC =         0.33883997
  Ewald energy   TEWEN  =      1442.22754155
  -1/2 Hartree   DENC   =     -2242.33995207
  -exchange  EXHF       =         0.00000000
  -V(xc)+E(xc)   XCENC  =        91.94750182
  PAW double counting   =      1795.65624753    -1799.85898966
  entropy T*S    EENTRO =         0.00057979
  eigenvalues    EBANDS =      -324.48289741
  atomic energy  EATOM  =       973.47392897
  ---------------------------------------------------
  free energy    TOTEN  =       -63.03719952 eV

  energy without entropy =      -63.03777931  energy(sigma->0) =      -63.03739279


--------------------------------------------------------------------------------------------------------




----------------------------------------- Iteration    1(  17)  ---------------------------------------


    POTLOK:  cpu time    0.42: real time    0.42
    SETDIJ:  cpu time    0.00: real time    0.00
    EDDIAG:  cpu time    0.10: real time    0.10
  RMM-DIIS:  cpu time    0.67: real time    0.67
    ORTHCH:  cpu time    0.00: real time    0.00
       DOS:  cpu time    0.00: real time    0.00
    CHARGE:  cpu time    0.06: real time    0.06
    MIXING:  cpu time    0.03: real time    0.03
    --------------------------------------------
      LOOP:  cpu time    1.29: real time    1.31

 eigenvalue-minimisations  :    40
 total energy-change (2. order) :-0.5162573E-02  (-0.6536354E-03)
 number of electron      25.9999917 magnetization 
 augmentation part        1.0917788 magnetization 

 Broyden mixing:
  rms(total) = 0.62031E-02    rms(broyden)= 0.61993E-02
  rms(prec ) = 0.87381E-02
  weight for this iteration     100.00

 eigenvalues of (default mixing * dielectric matrix)
  average eigenvalue GAMMA=   1.9980
  4.0139  2.4577  1.9695  1.9695  1.3701  1.0478  1.1573

 Free energy of the ion-electron system (eV)
  ---------------------------------------------------
  alpha Z        PSCENC =         0.33883997
  Ewald energy   TEWEN  =      1442.22754155
  -1/2 Hartree   DENC   =     -2245.90965728
  -exchange  EXHF       =         0.00000000
  -V(xc)+E(xc)   XCENC  =        92.01905821
  PAW double counting   =      1795.38117085    -1799.58652934
  entropy T*S    EENTRO =         0.00000000
  eigenvalues    EBANDS =      -320.98671503
  atomic energy  EATOM  =       973.47392897
  ---------------------------------------------------
  free energy    TOTEN  =       -63.04236210 eV

  energy without entropy =      -63.04236210  energy(sigma->0) =      -63.04236210


--------------------------------------------------------------------------------------------------------




----------------------------------------- Iteration    1(  18)  ---------------------------------------


    POTLOK:  cpu time    0.42: real time    0.42
    SETDIJ:  cpu time    0.00: real time    0.00
    EDDIAG:  cpu time    0.11: real time    0.11
  RMM-DIIS:  cpu time    0.67: real time    0.67
    ORTHCH:  cpu time    0.00: real time    0.00
       DOS:  cpu time    0.00: real time    0.00
    CHARGE:  cpu time    0.06: real time    0.06
    MIXING:  cpu time    0.03: real time    0.03
    --------------------------------------------
      LOOP:  cpu time    1.29: real time    1.31

 eigenvalue-minimisations  :    40
 total energy-change (2. order) :-0.5730449E-02  (-0.2028239E-03)
 number of electron      25.9999917 magnetization 
 augmentation part        1.0921223 magnetization 

 Broyden mixing:
  rms(total) = 0.55981E-02    rms(broyden)= 0.55973E-02
  rms(prec ) = 0.70043E-02
  weight for this iteration     100.00

 eigenvalues of (default mixing * dielectric matrix)
  average eigenvalue GAMMA=   2.0727
  5.2670  2.7918  2.3020  1.6089  1.3518  0.9849  1.1374  1.1374

 Free energy of the ion-electron system (eV)
  ---------------------------------------------------
  alpha Z        PSCENC =         0.33883997
  Ewald energy   TEWEN  =      1442.22754155
  -1/2 Hartree   DENC   =     -2246.20340090
  -exchange  EXHF       =         0.00000000
  -V(xc)+E(xc)   XCENC  =        91.99565004
  PAW double counting   =      1792.14034108    -1796.34110599
  entropy T*S    EENTRO =         0.00057979
  eigenvalues    EBANDS =      -320.68046705
  atomic energy  EATOM  =       973.47392897
  ---------------------------------------------------
  free energy    TOTEN  =       -63.04809255 eV

  energy without entropy =      -63.04867234  energy(sigma->0) =      -63.04828581


--------------------------------------------------------------------------------------------------------




----------------------------------------- Iteration    1(  19)  ---------------------------------------


    POTLOK:  cpu time    1.98: real time    2.15
    SETDIJ:  cpu time    0.08: real time    0.08
    EDDIAG:  cpu time    1.14: real time    1.14
  RMM-DIIS:  cpu time    0.69: real time    0.69
    ORTHCH:  cpu time    0.01: real time    0.00
       DOS:  cpu time    0.00: real time    0.00
    CHARGE:  cpu time    0.05: real time    0.05
    MIXING:  cpu time    0.04: real time    0.04
    --------------------------------------------
      LOOP:  cpu time    4.00: real time    4.25

 eigenvalue-minimisations  :    41
 total energy-change (2. order) :-0.3749234E-02  (-0.8226959E-04)
 number of electron      25.9999917 magnetization 
 augmentation part        1.0916642 magnetization 

 Broyden mixing:
  rms(total) = 0.18151E-02    rms(broyden)= 0.18139E-02
  rms(prec ) = 0.29643E-02
  weight for this iteration     100.00

 eigenvalues of (default mixing * dielectric matrix)
  average eigenvalue GAMMA=   2.2138
  5.6021  3.2189  2.3080  2.3080  1.7775  1.5595  0.9928  1.0786  1.0786

 Free energy of the ion-electron system (eV)
  ---------------------------------------------------
  alpha Z        PSCENC =         0.33883997
  Ewald energy   TEWEN  =      1442.22754155
  -1/2 Hartree   DENC   =     -2246.85467170
  -exchange  EXHF       =         0.00000000
  -V(xc)+E(xc)   XCENC  =        92.00312102
  PAW double counting   =      1792.55885780    -1796.76247260
  entropy T*S    EENTRO =         0.00057979
  eigenvalues    EBANDS =      -320.03756658
  atomic energy  EATOM  =       973.47392897
  ---------------------------------------------------
  free energy    TOTEN  =       -63.05184178 eV

  energy without entropy =      -63.05242157  energy(sigma->0) =      -63.05203504


--------------------------------------------------------------------------------------------------------




----------------------------------------- Iteration    1(  20)  ---------------------------------------


    POTLOK:  cpu time    0.44: real time    0.44
    SETDIJ:  cpu time    0.00: real time    0.01
    EDDIAG:  cpu time    0.11: real time    0.11
  RMM-DIIS:  cpu time    0.68: real time    0.68
    ORTHCH:  cpu time    0.00: real time    0.00
       DOS:  cpu time    0.00: real time    0.00
    CHARGE:  cpu time    0.05: real time    0.06
    MIXING:  cpu time    0.04: real time    0.04
    --------------------------------------------
      LOOP:  cpu time    1.33: real time    1.33

 eigenvalue-minimisations  :    40
 total energy-change (2. order) :-0.4767620E-02  (-0.1099148E-03)
 number of electron      25.9999917 magnetization 
 augmentation part        1.0917184 magnetization 

 Broyden mixing:
  rms(total) = 0.33191E-02    rms(broyden)= 0.33184E-02
  rms(prec ) = 0.37533E-02
  weight for this iteration     100.00

 eigenvalues of (default mixing * dielectric matrix)
  average eigenvalue GAMMA=   2.2124
  6.8347  3.6413  2.2243  2.2243  1.7464  1.2075  1.2075  1.0273  1.0053  1.0053

 Free energy of the ion-electron system (eV)
  ---------------------------------------------------
  alpha Z        PSCENC =         0.33883997
  Ewald energy   TEWEN  =      1442.22754155
  -1/2 Hartree   DENC   =     -2246.80162939
  -exchange  EXHF       =         0.00000000
  -V(xc)+E(xc)   XCENC  =        91.98713021
  PAW double counting   =      1792.34679145    -1796.54882125
  entropy T*S    EENTRO =         0.00000000
  eigenvalues    EBANDS =      -320.08039090
  atomic energy  EATOM  =       973.47392897
  ---------------------------------------------------
  free energy    TOTEN  =       -63.05660940 eV

  energy without entropy =      -63.05660940  energy(sigma->0) =      -63.05660940


--------------------------------------------------------------------------------------------------------




----------------------------------------- Iteration    1(  21)  ---------------------------------------


    POTLOK:  cpu time    0.44: real time    0.44
    SETDIJ:  cpu time    0.00: real time    0.01
    EDDIAG:  cpu time    0.11: real time    0.11
  RMM-DIIS:  cpu time    0.71: real time    0.71
    ORTHCH:  cpu time    0.00: real time    0.00
       DOS:  cpu time    0.00: real time    0.00
    CHARGE:  cpu time    0.05: real time    0.05
    MIXING:  cpu time    0.04: real time    0.04
    --------------------------------------------
      LOOP:  cpu time    1.37: real time    1.37

 eigenvalue-minimisations  :    42
 total energy-change (2. order) :-0.2244934E-03  (-0.1606641E-04)
 number of electron      25.9999917 magnetization 
 augmentation part        1.0916613 magnetization 

 Broyden mixing:
  rms(total) = 0.11893E-02    rms(broyden)= 0.11893E-02
  rms(prec ) = 0.15189E-02
  weight for this iteration     100.00

 eigenvalues of (default mixing * dielectric matrix)
  average eigenvalue GAMMA=   2.2808
  6.9035  4.2709  2.4038  2.2389  2.2389  1.2395  1.2395  1.4081  1.0299  1.0299
  1.0861

 Free energy of the ion-electron system (eV)
  ---------------------------------------------------
  alpha Z        PSCENC =         0.33883997
  Ewald energy   TEWEN  =      1442.22754155
  -1/2 Hartree   DENC   =     -2246.95358622
  -exchange  EXHF       =         0.00000000
  -V(xc)+E(xc)   XCENC  =        91.99078633
  PAW double counting   =      1792.94695725    -1797.14926211
  entropy T*S    EENTRO =         0.00000000
  eigenvalues    EBANDS =      -319.93203964
  atomic energy  EATOM  =       973.47392897
  ---------------------------------------------------
  free energy    TOTEN  =       -63.05683389 eV

  energy without entropy =      -63.05683389  energy(sigma->0) =      -63.05683389


--------------------------------------------------------------------------------------------------------




----------------------------------------- Iteration    1(  22)  ---------------------------------------


    POTLOK:  cpu time    0.58: real time    0.59
    SETDIJ:  cpu time    0.00: real time    0.01
    EDDIAG:  cpu time    0.11: real time    0.11
  RMM-DIIS:  cpu time    0.68: real time    0.68
    ORTHCH:  cpu time    0.00: real time    0.00
       DOS:  cpu time    0.00: real time    0.00
    CHARGE:  cpu time    0.05: real time    0.06
    MIXING:  cpu time    0.05: real time    0.05
    --------------------------------------------
      LOOP:  cpu time    1.48: real time    1.49

 eigenvalue-minimisations  :    40
 total energy-change (2. order) :-0.8722628E-03  (-0.1672492E-04)
 number of electron      25.9999917 magnetization 
 augmentation part        1.0915755 magnetization 

 Broyden mixing:
  rms(total) = 0.96779E-03    rms(broyden)= 0.96712E-03
  rms(prec ) = 0.11221E-02
  weight for this iteration     100.00

 eigenvalues of (default mixing * dielectric matrix)
  average eigenvalue GAMMA=   2.2977
  7.4840  4.9638  2.7047  2.4280  1.7508  1.7508  1.1827  1.1827  1.1203  1.1203
  1.0029  0.8814

 Free energy of the ion-electron system (eV)
  ---------------------------------------------------
  alpha Z        PSCENC =         0.33883997
  Ewald energy   TEWEN  =      1442.22754155
  -1/2 Hartree   DENC   =     -2246.98446415
  -exchange  EXHF       =         0.00000000
  -V(xc)+E(xc)   XCENC  =        91.99026749
  PAW double counting   =      1792.95629835    -1797.15906564
  entropy T*S    EENTRO =         0.00000000
  eigenvalues    EBANDS =      -319.90105269
  atomic energy  EATOM  =       973.47392897
  ---------------------------------------------------
  free energy    TOTEN  =       -63.05770616 eV

  energy without entropy =      -63.05770616  energy(sigma->0) =      -63.05770616


--------------------------------------------------------------------------------------------------------




----------------------------------------- Iteration    1(  23)  ---------------------------------------


    POTLOK:  cpu time    0.44: real time    0.44
    SETDIJ:  cpu time    0.00: real time    0.01
    EDDIAG:  cpu time    0.11: real time    0.11
  RMM-DIIS:  cpu time    0.74: real time    0.74
    ORTHCH:  cpu time    0.00: real time    0.00
       DOS:  cpu time    0.00: real time    0.00
    CHARGE:  cpu time    0.06: real time    0.05
    MIXING:  cpu time    0.05: real time    0.05
    --------------------------------------------
      LOOP:  cpu time    1.40: real time    1.40

 eigenvalue-minimisations  :    40
 total energy-change (2. order) : 0.4115604E-03  (-0.2407674E-05)
 number of electron      25.9999917 magnetization 
 augmentation part        1.0916279 magnetization 

 Broyden mixing:
  rms(total) = 0.62791E-03    rms(broyden)= 0.62776E-03
  rms(prec ) = 0.73996E-03
  weight for this iteration     100.00

 eigenvalues of (default mixing * dielectric matrix)
  average eigenvalue GAMMA=   2.4097
  7.9527  5.3807  3.1545  2.5580  2.1149  2.1149  1.5067  1.2566  1.2566  1.0487
  1.0487  0.9995  0.9331

 Free energy of the ion-electron system (eV)
  ---------------------------------------------------
  alpha Z        PSCENC =         0.33883997
  Ewald energy   TEWEN  =      1442.22754155
  -1/2 Hartree   DENC   =     -2246.98010679
  -exchange  EXHF       =         0.00000000
  -V(xc)+E(xc)   XCENC  =        91.98872995
  PAW double counting   =      1792.83611237    -1797.03831276
  entropy T*S    EENTRO =         0.00057979
  eigenvalues    EBANDS =      -319.90460765
  atomic energy  EATOM  =       973.47392897
  ---------------------------------------------------
  free energy    TOTEN  =       -63.05729460 eV

  energy without entropy =      -63.05787439  energy(sigma->0) =      -63.05748786


--------------------------------------------------------------------------------------------------------




----------------------------------------- Iteration    1(  24)  ---------------------------------------


    POTLOK:  cpu time    0.43: real time    0.43
    SETDIJ:  cpu time    0.00: real time    0.01
    EDDIAG:  cpu time    0.10: real time    0.10
  RMM-DIIS:  cpu time    0.66: real time    0.66
    ORTHCH:  cpu time    0.00: real time    0.00
       DOS:  cpu time    0.00: real time    0.00
    CHARGE:  cpu time    0.05: real time    0.05
    MIXING:  cpu time    0.05: real time    0.05
    --------------------------------------------
      LOOP:  cpu time    1.31: real time    1.31

 eigenvalue-minimisations  :    39
 total energy-change (2. order) :-0.2494984E-03  (-0.2874239E-05)
 number of electron      25.9999917 magnetization 
 augmentation part        1.0916286 magnetization 

 Broyden mixing:
  rms(total) = 0.47845E-03    rms(broyden)= 0.47823E-03
  rms(prec ) = 0.53057E-03
  weight for this iteration     100.00

 eigenvalues of (default mixing * dielectric matrix)
  average eigenvalue GAMMA=   2.3697
  8.1827  5.7116  3.4884  2.4589  2.3545  1.7814  1.5923  1.2489  1.2489  1.1238
  1.1238  0.9691  0.9460  0.9460

 Free energy of the ion-electron system (eV)
  ---------------------------------------------------
  alpha Z        PSCENC =         0.33883997
  Ewald energy   TEWEN  =      1442.22754155
  -1/2 Hartree   DENC   =     -2247.01991986
  -exchange  EXHF       =         0.00000000
  -V(xc)+E(xc)   XCENC  =        91.98911501
  PAW double counting   =      1792.78329689    -1796.98559938
  entropy T*S    EENTRO =         0.00057979
  eigenvalues    EBANDS =      -319.86532703
  atomic energy  EATOM  =       973.47392897
  ---------------------------------------------------
  free energy    TOTEN  =       -63.05754409 eV

  energy without entropy =      -63.05812389  energy(sigma->0) =      -63.05773736


--------------------------------------------------------------------------------------------------------




----------------------------------------- Iteration    1(  25)  ---------------------------------------


    POTLOK:  cpu time    0.44: real time    0.44
    SETDIJ:  cpu time    0.00: real time    0.01
    EDDIAG:  cpu time    0.11: real time    0.11
  RMM-DIIS:  cpu time    0.52: real time    0.52
    ORTHCH:  cpu time    0.00: real time    0.00
       DOS:  cpu time    0.00: real time    0.00
    CHARGE:  cpu time    0.05: real time    0.05
    MIXING:  cpu time    0.05: real time    0.05
    --------------------------------------------
      LOOP:  cpu time    1.18: real time    1.18

 eigenvalue-minimisations  :    30
 total energy-change (2. order) :-0.6135061E-03  (-0.3130437E-06)
 number of electron      25.9999917 magnetization 
 augmentation part        1.0916012 magnetization 

 Broyden mixing:
  rms(total) = 0.23115E-03    rms(broyden)= 0.23106E-03
  rms(prec ) = 0.26170E-03
  weight for this iteration     100.00

 eigenvalues of (default mixing * dielectric matrix)
  average eigenvalue GAMMA=   2.4569
  8.5287  5.8762  3.2299  3.2299  2.6430  2.1388  2.0146  1.5512  1.2631  1.2631
  1.0780  1.0780  1.0287  0.9728  0.9575

 Free energy of the ion-electron system (eV)
  ---------------------------------------------------
  alpha Z        PSCENC =         0.33883997
  Ewald energy   TEWEN  =      1442.22754155
  -1/2 Hartree   DENC   =     -2247.03392286
  -exchange  EXHF       =         0.00000000
  -V(xc)+E(xc)   XCENC  =        91.98974593
  PAW double counting   =      1792.83272780    -1797.03520999
  entropy T*S    EENTRO =         0.00000000
  eigenvalues    EBANDS =      -319.85180897
  atomic energy  EATOM  =       973.47392897
  ---------------------------------------------------
  free energy    TOTEN  =       -63.05815760 eV

  energy without entropy =      -63.05815760  energy(sigma->0) =      -63.05815760


--------------------------------------------------------------------------------------------------------




----------------------------------------- Iteration    1(  26)  ---------------------------------------


    POTLOK:  cpu time    0.44: real time    0.44
    SETDIJ:  cpu time    0.00: real time    0.01
    EDDIAG:  cpu time    0.11: real time    0.11
  RMM-DIIS:  cpu time    0.65: real time    0.65
    ORTHCH:  cpu time    0.00: real time    0.00
       DOS:  cpu time    0.00: real time    0.00
    CHARGE:  cpu time    0.05: real time    0.05
    MIXING:  cpu time    0.05: real time    0.05
    --------------------------------------------
      LOOP:  cpu time    1.31: real time    1.32

 eigenvalue-minimisations  :    38
 total energy-change (2. order) :-0.5002495E-04  (-0.5525822E-06)
 number of electron      25.9999917 magnetization 
 augmentation part        1.0916144 magnetization 

 Broyden mixing:
  rms(total) = 0.27154E-03    rms(broyden)= 0.27142E-03
  rms(prec ) = 0.29653E-03
  weight for this iteration     100.00

 eigenvalues of (default mixing * dielectric matrix)
  average eigenvalue GAMMA=   2.4504
  8.9731  6.4095  4.4229  2.8758  2.3978  2.0542  2.0542  1.2507  1.2507  1.4881
  1.0870  1.0870  1.0011  1.0011  0.9269  0.9269

 Free energy of the ion-electron system (eV)
  ---------------------------------------------------
  alpha Z        PSCENC =         0.33883997
  Ewald energy   TEWEN  =      1442.22754155
  -1/2 Hartree   DENC   =     -2247.02609103
  -exchange  EXHF       =         0.00000000
  -V(xc)+E(xc)   XCENC  =        91.98917308
  PAW double counting   =      1792.83704457    -1797.03936254
  entropy T*S    EENTRO =         0.00000000
  eigenvalues    EBANDS =      -319.85928220
  atomic energy  EATOM  =       973.47392897
  ---------------------------------------------------
  free energy    TOTEN  =       -63.05820763 eV

  energy without entropy =      -63.05820763  energy(sigma->0) =      -63.05820763


--------------------------------------------------------------------------------------------------------




----------------------------------------- Iteration    1(  27)  ---------------------------------------


    POTLOK:  cpu time    0.44: real time    0.44
    SETDIJ:  cpu time    0.00: real time    0.01
    EDDIAG:  cpu time    0.11: real time    0.11
  RMM-DIIS:  cpu time    0.47: real time    0.47
    ORTHCH:  cpu time    0.00: real time    0.00
       DOS:  cpu time    0.00: real time    0.00
    CHARGE:  cpu time    0.05: real time    0.05
    MIXING:  cpu time    0.06: real time    0.06
    --------------------------------------------
      LOOP:  cpu time    1.14: real time    1.15

 eigenvalue-minimisations  :    27
 total energy-change (2. order) :-0.4531121E-05  (-0.3800814E-07)
 number of electron      25.9999917 magnetization 
 augmentation part        1.0916126 magnetization 

 Broyden mixing:
  rms(total) = 0.13859E-03    rms(broyden)= 0.13858E-03
  rms(prec ) = 0.15239E-03
  weight for this iteration     100.00

 eigenvalues of (default mixing * dielectric matrix)
  average eigenvalue GAMMA=   2.4916
  9.0459  6.6298  4.6225  3.1264  2.4961  2.1859  1.9808  1.9808  1.2826  1.2826
  1.4293  1.2300  1.0679  1.0679  1.0287  0.9741  0.9262

 Free energy of the ion-electron system (eV)
  ---------------------------------------------------
  alpha Z        PSCENC =         0.33883997
  Ewald energy   TEWEN  =      1442.22754155
  -1/2 Hartree   DENC   =     -2247.03206548
  -exchange  EXHF       =         0.00000000
  -V(xc)+E(xc)   XCENC  =        91.98927792
  PAW double counting   =      1792.81575273    -1797.01809783
  entropy T*S    EENTRO =         0.00000000
  eigenvalues    EBANDS =      -319.85338999
  atomic energy  EATOM  =       973.47392897
  ---------------------------------------------------
  free energy    TOTEN  =       -63.05821216 eV

  energy without entropy =      -63.05821216  energy(sigma->0) =      -63.05821216


--------------------------------------------------------------------------------------------------------




----------------------------------------- Iteration    1(  28)  ---------------------------------------


    POTLOK:  cpu time    0.44: real time    0.44
    SETDIJ:  cpu time    0.01: real time    0.01
    EDDIAG:  cpu time    0.11: real time    0.11
  RMM-DIIS:  cpu time    0.48: real time    0.49
    ORTHCH:  cpu time    0.00: real time    0.00
       DOS:  cpu time    0.00: real time    0.00
    CHARGE:  cpu time    0.05: real time    0.05
    MIXING:  cpu time    0.06: real time    0.06
    --------------------------------------------
      LOOP:  cpu time    1.16: real time    1.16

 eigenvalue-minimisations  :    28
 total energy-change (2. order) :-0.8061736E-05  (-0.1973454E-06)
 number of electron      25.9999917 magnetization 
 augmentation part        1.0916107 magnetization 

 Broyden mixing:
  rms(total) = 0.14413E-03    rms(broyden)= 0.14407E-03
  rms(prec ) = 0.15809E-03
  weight for this iteration     100.00

 eigenvalues of (default mixing * dielectric matrix)
  average eigenvalue GAMMA=   2.4372
  9.2530  6.6523  4.8100  3.3024  2.4752  2.4752  2.0075  2.0075  1.2676  1.2676
  1.3876  1.0750  1.0750  1.1624  1.0047  1.0047  0.9163  0.7255

 Free energy of the ion-electron system (eV)
  ---------------------------------------------------
  alpha Z        PSCENC =         0.33883997
  Ewald energy   TEWEN  =      1442.22754155
  -1/2 Hartree   DENC   =     -2247.03553109
  -exchange  EXHF       =         0.00000000
  -V(xc)+E(xc)   XCENC  =        91.98929945
  PAW double counting   =      1792.82702904    -1797.02939023
  entropy T*S    EENTRO =         0.00000000
  eigenvalues    EBANDS =      -319.84993787
  atomic energy  EATOM  =       973.47392897
  ---------------------------------------------------
  free energy    TOTEN  =       -63.05822022 eV

  energy without entropy =      -63.05822022  energy(sigma->0) =      -63.05822022


--------------------------------------------------------------------------------------------------------




----------------------------------------- Iteration    1(  29)  ---------------------------------------


    POTLOK:  cpu time    0.44: real time    0.44
    SETDIJ:  cpu time    0.00: real time    0.01
    EDDIAG:  cpu time    0.11: real time    0.11
  RMM-DIIS:  cpu time    0.46: real time    0.46
    ORTHCH:  cpu time    0.00: real time    0.00
       DOS:  cpu time    0.00: real time    0.00
    CHARGE:  cpu time    0.05: real time    0.05
    MIXING:  cpu time    0.07: real time    0.07
    --------------------------------------------
      LOOP:  cpu time    1.14: real time    1.14

 eigenvalue-minimisations  :    25
 total energy-change (2. order) : 0.5787627E-03  (-0.1368946E-07)
 number of electron      25.9999917 magnetization 
 augmentation part        1.0916110 magnetization 

 Broyden mixing:
  rms(total) = 0.10700E-03    rms(broyden)= 0.10699E-03
  rms(prec ) = 0.11694E-03
  weight for this iteration     100.00

 eigenvalues of (default mixing * dielectric matrix)
  average eigenvalue GAMMA=   2.3973
  9.3759  6.8381  4.9018  3.5766  2.5095  2.5095  1.9687  1.9687  1.2463  1.2463
  1.3686  1.1471  1.0741  1.0741  1.0069  0.9406  0.9406  0.9272  0.9272

 Free energy of the ion-electron system (eV)
  ---------------------------------------------------
  alpha Z        PSCENC =         0.33883997
  Ewald energy   TEWEN  =      1442.22754155
  -1/2 Hartree   DENC   =     -2247.03410285
  -exchange  EXHF       =         0.00000000
  -V(xc)+E(xc)   XCENC  =        91.98925208
  PAW double counting   =      1792.81993465    -1797.02229429
  entropy T*S    EENTRO =         0.00057979
  eigenvalues    EBANDS =      -319.85132132
  atomic energy  EATOM  =       973.47392897
  ---------------------------------------------------
  free energy    TOTEN  =       -63.05764146 eV

  energy without entropy =      -63.05822125  energy(sigma->0) =      -63.05783472


--------------------------------------------------------------------------------------------------------




----------------------------------------- Iteration    1(  30)  ---------------------------------------


    POTLOK:  cpu time    0.44: real time    0.44
    SETDIJ:  cpu time    0.00: real time    0.01
    EDDIAG:  cpu time    0.11: real time    0.11
  RMM-DIIS:  cpu time    0.41: real time    0.41
    ORTHCH:  cpu time    0.00: real time    0.00
       DOS:  cpu time    0.00: real time    0.00
    --------------------------------------------
      LOOP:  cpu time    0.97: real time    0.97

 eigenvalue-minimisations  :    18
 total energy-change (2. order) :-0.5223483E-06  (-0.4467669E-08)
 number of electron      25.9999917 magnetization 
 augmentation part        1.0916110 magnetization 

 Free energy of the ion-electron system (eV)
  ---------------------------------------------------
  alpha Z        PSCENC =         0.33883997
  Ewald energy   TEWEN  =      1442.22754155
  -1/2 Hartree   DENC   =     -2247.03339311
  -exchange  EXHF       =         0.00000000
  -V(xc)+E(xc)   XCENC  =        91.98924969
  PAW double counting   =      1792.82048665    -1797.02284981
  entropy T*S    EENTRO =         0.00057979
  eigenvalues    EBANDS =      -319.85202568
  atomic energy  EATOM  =       973.47392897
  ---------------------------------------------------
  free energy    TOTEN  =       -63.05764198 eV

  energy without entropy =      -63.05822177  energy(sigma->0) =      -63.05783524


--------------------------------------------------------------------------------------------------------




 average (electrostatic) potential at core
  the test charge radii are     0.7215  0.5201  0.6991
  (the norm of the test charge is              1.0000)
       1 -80.4266       2 -41.8942       3 -41.7516       4 -41.7410       5 -41.6802
       6 -41.6616       7 -41.7514       8 -41.5666       9 -41.5674      10 -59.4243
      11 -59.5479      12 -58.2882
 
 
 
 E-fermi :  -5.7636     XC(G=0):  -0.2222     alpha+bet : -0.0746


 k-point   1 :       0.0000    0.0000    0.0000
  band No.  band energies     occupation 
      1     -25.7224      2.00000
      2     -18.7829      2.00000
      3     -16.5122      2.00000
      4     -14.7540      2.00000
      5     -11.9228      2.00000
      6     -11.6054      2.00000
      7     -10.9283      2.00000
      8     -10.0880      2.00000
      9      -9.2104      2.00000
     10      -8.7258      2.00000
     11      -8.3808      2.00000
     12      -7.5211      2.00000
     13      -5.7720      2.00000
     14      -0.4858      0.00000
     15      -0.1147      0.00000
     16       0.0698      0.00000
     17       0.1460      0.00000
     18       0.1690      0.00000
     19       0.3232      0.00000
     20       0.7898      0.00000


--------------------------------------------------------------------------------------------------------


 soft charge-density along one line, spin component           1
         0         1         2         3         4         5         6         7         8         9
 total charge-density along one line
 
 pseudopotential strength for first ion, spin component:           1
 13.786 -16.901  -0.009  -0.087  -0.063   0.012   0.109   0.078
-16.901  20.750   0.012   0.111   0.080  -0.015  -0.140  -0.101
 -0.009   0.012 -10.383   0.048  -0.074  12.853  -0.065   0.100
 -0.087   0.111   0.048 -10.485   0.036  -0.065  12.990  -0.048
 -0.063   0.080  -0.074   0.036 -10.484   0.100  -0.048  12.989
  0.012  -0.015  12.853  -0.065   0.100 -15.835   0.088  -0.135
  0.109  -0.140  -0.065  12.990  -0.048   0.088 -16.021   0.066
  0.078  -0.101   0.100  -0.048  12.989  -0.135   0.066 -16.020
 total augmentation occupancy for first ion, spin component:           1
  2.895   0.532   0.028   0.250   0.181   0.012   0.107   0.079
  0.532   0.169   0.032   0.296   0.212   0.007   0.059   0.044
  0.028   0.032   2.250  -0.026   0.035   0.237  -0.065   0.099
  0.250   0.296  -0.026   2.294  -0.025  -0.065   0.373  -0.049
  0.181   0.212   0.035  -0.025   2.292   0.099  -0.049   0.371
  0.012   0.007   0.237  -0.065   0.099   0.042  -0.018   0.027
  0.107   0.059  -0.065   0.373  -0.049  -0.018   0.074  -0.017
  0.079   0.044   0.099  -0.049   0.371   0.027  -0.017   0.076


------------------------ aborting loop because EDIFF is reached ----------------------------------------


    CHARGE:  cpu time    0.36: real time    0.36
    FORLOC:  cpu time    0.04: real time    0.04
    FORNL :  cpu time    0.16: real time    0.16
    STRESS:  cpu time    0.54: real time    0.54
    FORCOR:  cpu time    0.43: real time    0.43
    FORHAR:  cpu time    0.13: real time    0.13
    MIXING:  cpu time    0.06: real time    0.06
 _________________________________
                                  
|         DFTD3 V3.0 Rev 1        |
| S.Grimme, University Bonn       |
|        November  2012           |
 _________________________________

Please cite DFT-D3 as:
S. Grimme, J. Antony, S. Ehrlich and H. Krieg,
J. Chem. Phys. 132 (2010), 154104
If used with BJ-damping cite also
S. Grimme, S. Ehrlich and L. Goerigk,
J. Comput. Chem. 32 (2011), 1456-1465
For DFT-D2 the reference is
S. Grimme, J. Comput. Chem., 27 (2006), 1787

           DFT-D V3
 DF pbe       
 parameters
 s6       :    1.0000
 s8       :    0.7220
 rs6      :    1.2170
 rs18     :    1.0000
 alpha6   :   14.0000
 alpha8   :   16.0000
 k1-k3    :   16.0000    1.3333   -4.0000
 Cutoff    /Ang:   50.2022
 CN-Cutoff /Ang:   21.1671
 Edisp /eV,au:    -0.0807 -0.00296514

 E6    /eV :    -0.0267
 E8    /eV :    -0.0747
 % E8        : 92.60

 POSITION                                vdW-FORCE (eV/Ang)               C6          C8     CN


 ---------------------------------------------------------------------------------------------

   14.17730   11.51331   -3.70381      -0.00712    0.00185   -0.02523     10.4        210.0  2.0
   12.82674   10.65336   -2.44405      -0.00270   -0.00139    0.00130      3.1         37.4  1.0
   13.85170   11.90956   -1.66972      -0.00204    0.00348    0.00976      3.1         37.4  1.0
   14.54010   10.29235   -2.04026       0.00239   -0.00704    0.00699      3.1         37.4  1.0
   16.22309   11.40063   -3.33855       0.01194   -0.00155    0.00166      3.1         37.4  1.0
   15.48735   13.00961   -3.09194       0.00558    0.00861    0.00385      3.1         37.4  1.0
   16.78993   12.96546   -5.21906       0.00090    0.00028    0.00065      3.1         37.4  1.0
   15.05649   13.17362   -5.58383      -0.00404   -0.00090    0.00253      3.1         37.4  1.0
   15.83089   11.58377   -5.81291      -0.00304   -0.00320    0.00210      3.1         37.4  1.0
   13.84012   11.07387   -2.39761      -0.00452   -0.00178   -0.00106     18.3        529.0  4.0
   15.47189   12.11082   -3.74392       0.00120    0.00036    0.00265     18.3        528.7  4.1
   15.80430   12.47887   -5.17526       0.00145    0.00127   -0.00519     18.3        530.0  4.0

  FORCE on cell =-STRESS in cart. coord.  units (eV):
  Direction    XX          YY          ZZ          XY          YZ          ZX
  --------------------------------------------------------------------------------------
  DFT-D       0.03604     0.02507     0.03199     0.00408     0.00213     0.00877
    FORVDW:  cpu time    0.01: real time    0.03

  FORCE on cell =-STRESS in cart. coord.  units (eV):
  Direction    XX          YY          ZZ          XY          YZ          ZX
  --------------------------------------------------------------------------------------
  Alpha Z     0.33884     0.33884     0.33884
  Ewald     518.32596   254.83102   669.07027   247.91386  -249.32528  -296.26632
  Hartree   768.02161   591.52187   887.48910   172.98685  -184.37759  -225.63530
  E(xc)     -99.48711   -99.79509   -99.45643     0.23744    -0.16934    -0.15195
  Local   -1527.03341 -1100.23473 -1802.16349  -411.63775   428.87127   518.47843
  n-local   -58.93388   -60.94632   -58.06072     1.60870    -1.28837    -1.13098
  augment     6.17206     7.28053     6.20303    -0.79825     0.50041     0.34495
  Kinetic   391.19901   405.43551   395.16473   -10.19796     5.72452     4.30713
  Fock        0.00000     0.00000     0.00000     0.00000     0.00000     0.00000
  -------------------------------------------------------------------------------------
  Total      -1.36088    -1.54329    -1.38268     0.11696    -0.06225    -0.04526
  in kB      -0.27255    -0.30908    -0.27691     0.02342    -0.01247    -0.00906
  external pressure =       -0.29 kB  Pullay stress =        0.00 kB


 VOLUME and BASIS-vectors are now :
 -----------------------------------------------------------------------------
  energy-cutoff  :      400.00
  volume of cell :     8000.00
      direct lattice vectors                 reciprocal lattice vectors
    16.329931619 -8.164965809 -8.164965809     0.040824829 -0.020412415 -0.020412415
     0.000000000 14.142135624-14.142135624     0.000000000  0.035355339 -0.035355339
    11.547005384 11.547005384 11.547005384     0.028867513  0.028867513  0.028867513

  length of vectors
    20.000000000 20.000000000 20.000000000     0.050000000  0.050000000  0.050000000


 FORCES acting on ions
    electron-ion (+dipol)            ewald-force                    non-local-force                 convergence-correction
 -----------------------------------------------------------------------------------------------
   0.164E+03 0.460E+02 0.116E+03   -.190E+03 -.499E+02 -.152E+03   0.256E+02 0.386E+01 0.357E+02   0.144E-02 0.683E-03 0.348E-04
   0.683E+02 0.322E+02 -.135E+02   -.736E+02 -.343E+02 0.133E+02   0.525E+01 0.218E+01 0.229E+00   0.134E-04 0.937E-05 -.171E-04
   0.122E+02 -.398E+02 -.624E+02   -.122E+02 0.439E+02 0.660E+02   -.181E-01 -.408E+01 -.360E+01   0.420E-04 0.128E-04 -.488E-04
   -.288E+02 0.563E+02 -.403E+02   0.322E+02 -.602E+02 0.420E+02   -.340E+01 0.386E+01 -.177E+01   0.297E-04 0.351E-04 -.383E-04
   -.640E+02 0.378E+02 -.276E+02   0.677E+02 -.413E+02 0.295E+02   -.369E+01 0.345E+01 -.197E+01   -.234E-03 0.140E-03 -.486E-04
   -.165E+02 -.644E+02 -.435E+02   0.166E+02 0.688E+02 0.467E+02   -.975E-01 -.440E+01 -.318E+01   -.569E-04 -.248E-03 -.108E-03
   -.625E+02 -.329E+02 0.175E+02   0.674E+02 0.354E+02 -.178E+02   -.489E+01 -.242E+01 0.282E+00   0.221E-03 0.102E-03 0.415E-04
   0.326E+02 -.485E+02 0.426E+02   -.363E+02 0.520E+02 -.446E+02   0.376E+01 -.345E+01 0.208E+01   -.215E-03 0.145E-03 -.349E-04
   -.125E+02 0.442E+02 0.558E+02   0.126E+02 -.487E+02 -.591E+02   -.104E+00 0.447E+01 0.322E+01   -.264E-04 -.242E-03 -.897E-04
   0.804E+02 0.703E+02 -.158E+03   -.818E+02 -.721E+02 0.163E+03   0.141E+01 0.176E+01 -.498E+01   0.307E-03 0.190E-03 -.239E-03
   -.128E+03 -.552E+02 -.388E+02   0.133E+03 0.575E+02 0.388E+02   -.486E+01 -.226E+01 0.165E-01   -.484E-03 -.314E-03 0.617E-03
   -.645E+02 -.491E+02 0.125E+03   0.640E+02 0.489E+02 -.126E+03   0.422E+00 0.135E+00 0.479E+00   -.300E-03 -.242E-03 0.699E-03
 -----------------------------------------------------------------------------------------------
   -.194E+02 -.309E+01 -.265E+02   0.142E-13 0.711E-14 0.568E-13   0.194E+02 0.310E+01 0.265E+02   0.736E-03 0.271E-03 0.767E-03
 
 
 POSITION                                       TOTAL-FORCE (eV/Angst)
 -----------------------------------------------------------------------------------
     14.17730     11.51331     -3.70381         0.008574     -0.002975     -0.000004
     12.82674     10.65336     -2.44405         0.002083      0.001355     -0.009084
     13.85170     11.90956     -1.66972        -0.007552      0.004290     -0.004061
     14.54010     10.29235     -2.04026        -0.003064      0.001841      0.006781
     16.22309     11.40063     -3.33855         0.008174      0.001923      0.001378
     15.48735     13.00961     -3.09194         0.004778      0.000390      0.004157
     16.78993     12.96546     -5.21906        -0.000179     -0.001351     -0.009514
     15.05649     13.17362     -5.58383        -0.003279     -0.002000      0.008812
     15.83089     11.58377     -5.81291        -0.009202     -0.002221      0.001666
     13.84012     11.07387     -2.39761        -0.005380     -0.000903     -0.002623
     15.47189     12.11082     -3.74392         0.008678     -0.003058      0.001464
     15.80430     12.47887     -5.17526        -0.003631      0.002709      0.001030
 -----------------------------------------------------------------------------------
    total drift:                               -0.005504      0.004484     -0.009052


--------------------------------------------------------------------------------------------------------



  FREE ENERGIE OF THE ION-ELECTRON SYSTEM (eV)
  ---------------------------------------------------
  free  energy   TOTEN  =       -63.13832822 eV

  energy  without entropy=      -63.13890801  energy(sigma->0) =      -63.13852148
 


--------------------------------------------------------------------------------------------------------


    POTLOK:  cpu time    0.45: real time    0.45


--------------------------------------------------------------------------------------------------------


 stress matrix after NEB project (eV)
     -1.36088      0.11696     -0.04526
      0.11696     -1.54329     -0.06225
     -0.04526     -0.06225     -1.38268
  FORCES: max atom, RMS     0.009612    0.008449
  FORCE total and by dimension    0.029267    0.009514
  Stress total and by dimension    2.486918    1.543293
 Quasi-Newton relaxation of ions (Broydens 2nd method)
  g(Force)  = 0.413E-04   g(Stress)= 0.000E+00

 Reset! Starting new Quasi-Newton update for ions 


--------------------------------------------------------------------------------------------------------


  
 reached required accuracy - stopping structural energy minimisation
     LOOP+:  cpu time   45.52: real time   47.36
    4ORBIT:  cpu time    0.00: real time    0.00

 total amount of memory used by VASP on root node    61211. kBytes
========================================================================

   base      :      30000. kBytes
   nonlr-proj:        394. kBytes
   fftplans  :      10155. kBytes
   grid      :      18330. kBytes
   one-center:          3. kBytes
   wavefun   :       2329. kBytes
 
  
  
 General timing and accounting informations for this job:
 ========================================================
  
                  Total CPU time used (sec):       47.511
                            User time (sec):       46.080
                          System time (sec):        1.431
                         Elapsed time (sec):       49.785
  
                   Maximum memory used (kb):       92068.
                   Average memory used (kb):           0.
  
                          Minor page faults:       257208
                          Major page faults:           12
                 Voluntary context switches:         1285
