<?xml version="1.0" encoding="ISO-8859-1"?>
<modeling>
 <generator>
  <i name="program" type="string">vasp </i>
  <i name="version" type="string">5.3.2  </i>
  <i name="subversion" type="string">13Sep12 (build Oct  1 2014 13:46:58) complex                          parallel </i>
  <i name="platform" type="string">LinuxIFC </i>
  <i name="date" type="string">2015 11 22 </i>
  <i name="time" type="string">18:50:13 </i>
 </generator>
 <incar>
  <i type="int" name="ISTART">     0</i>
  <i type="string" name="PREC">med</i>
  <i type="string" name="ALGO"> Fast</i>
  <i type="int" name="ISPIN">     1</i>
  <i type="int" name="NELM">   400</i>
  <i type="int" name="NELMDL">   -10</i>
  <i type="int" name="IBRION">     1</i>
  <i type="int" name="NFREE">     2</i>
  <i name="EDIFF">      0.00000100</i>
  <i name="EDIFFG">     -0.01000000</i>
  <i type="int" name="NSW">   200</i>
  <i type="int" name="ISIF">     2</i>
  <i type="int" name="ISYM">     0</i>
  <i name="ENCUT">    400.00000000</i>
  <i name="POTIM">      0.50000000</i>
  <i type="string" name="LREAL"> auto</i>
  <v name="ROPT">     -0.00020000     -0.00020000     -0.00020000</v>
  <i type="logical" name="LPLANE"> T  </i>
  <i type="int" name="ISMEAR">     1</i>
  <i name="SIGMA">      0.01000000</i>
  <i type="int" name="NWRITE">     1</i>
  <i type="logical" name="LWAVE"> F  </i>
  <i type="logical" name="LCHARG"> F  </i>
  <i type="logical" name="LVTOT"> F  </i>
  <i type="int" name="NELM">   400</i>
  <i type="int" name="VOSKOWN">     1</i>
 </incar>
 <kpoints>
  <generation param="Monkhorst-Pack">
   <v type="int" name="divisions">       1        1        1 </v>
   <v name="usershift">      0.00000000       0.00000000       0.00000000 </v>
   <v name="genvec1">      1.00000000       0.00000000       0.00000000 </v>
   <v name="genvec2">      0.00000000       1.00000000       0.00000000 </v>
   <v name="genvec3">      0.00000000       0.00000000       1.00000000 </v>
   <v name="shift">      0.00000000       0.00000000       0.00000000 </v>
  </generation>
  <varray name="kpointlist" >
   <v>       0.00000000       0.00000000       0.00000000 </v>
  </varray>
  <varray name="weights" >
   <v>       1.00000000 </v>
  </varray>
 </kpoints>
 <parameters>
  <separator name="general" >
   <i type="string" name="SYSTEM">unknown system</i>
   <i type="logical" name="LCOMPAT"> F  </i>
  </separator>
  <separator name="electronic" >
   <i type="string" name="PREC">med</i>
   <i name="ENMAX">    400.00000000</i>
   <i name="ENAUG">    644.87300000</i>
   <i name="EDIFF">      0.00000100</i>
   <i type="int" name="IALGO">    68</i>
   <i type="int" name="IWAVPR">    11</i>
   <i type="int" name="NBANDS">    20</i>
   <i name="NELECT">     26.00000000</i>
   <i type="int" name="TURBO">     0</i>
   <i type="int" name="IRESTART">     0</i>
   <i type="int" name="NREBOOT">     0</i>
   <i type="int" name="NMIN">     0</i>
   <i name="EREF">      0.00000000</i>
   <separator name="electronic smearing" >
    <i type="int" name="ISMEAR">     1</i>
    <i name="SIGMA">      0.01000000</i>
    <i name="KSPACING">      0.50000000</i>
    <i type="logical" name="KGAMMA"> T  </i>
   </separator>
   <separator name="electronic projectors" >
    <i type="logical" name="LREAL"> T  </i>
    <v name="ROPT">     -0.00020000     -0.00020000     -0.00020000</v>
    <i type="int" name="LMAXPAW">  -100</i>
    <i type="int" name="LMAXMIX">     2</i>
    <i type="logical" name="NLSPLINE"> F  </i>
   </separator>
   <separator name="electronic startup" >
    <i type="int" name="ISTART">     0</i>
    <i type="int" name="ICHARG">     2</i>
    <i type="int" name="INIWAV">     1</i>
   </separator>
   <separator name="electronic spin" >
    <i type="int" name="ISPIN">     1</i>
    <i type="logical" name="LNONCOLLINEAR"> F  </i>
    <v name="MAGMOM">      1.00000000      1.00000000      1.00000000      1.00000000      1.00000000      1.00000000      1.00000000      1.00000000      1.00000000      1.00000000      1.00000000      1.00000000</v>
    <i name="NUPDOWN">     -1.00000000</i>
    <i type="logical" name="LSORBIT"> F  </i>
    <v name="SAXIS">      0.00000000      0.00000000      1.00000000</v>
    <i type="logical" name="LSPIRAL"> F  </i>
    <v name="QSPIRAL">      0.00000000      0.00000000      0.00000000</v>
    <i type="logical" name="LZEROZ"> F  </i>
   </separator>
   <separator name="electronic exchange-correlation" >
    <i type="logical" name="LASPH"> F  </i>
    <i type="logical" name="LMETAGGA"> F  </i>
   </separator>
   <separator name="electronic convergence" >
    <i type="int" name="NELM">   400</i>
    <i type="int" name="NELMDL">   -10</i>
    <i type="int" name="NELMIN">     2</i>
    <i name="ENINI">    400.00000000</i>
    <separator name="electronic convergence detail" >
     <i type="logical" name="LDIAG"> T  </i>
     <i type="logical" name="LSUBROT"> T  </i>
     <i name="WEIMIN">      0.00100000</i>
     <i name="EBREAK">      0.00000001</i>
     <i name="DEPER">      0.30000000</i>
     <i type="int" name="NRMM">     4</i>
     <i name="TIME">      0.40000000</i>
    </separator>
   </separator>
   <separator name="electronic mixer" >
    <i name="AMIX">      0.40000000</i>
    <i name="BMIX">      1.00000000</i>
    <i name="AMIN">      0.10000000</i>
    <i name="AMIX_MAG">      1.60000000</i>
    <i name="BMIX_MAG">      1.00000000</i>
    <separator name="electronic mixer details" >
     <i type="int" name="IMIX">     4</i>
     <i type="int" name="MAXMIX">   -45</i>
     <i name="WC">    100.00000000</i>
     <i type="int" name="INIMIX">     1</i>
     <i type="int" name="MIXPRE">     1</i>
     <i type="int" name="MREMOVE">     5</i>
    </separator>
   </separator>
   <separator name="electronic dipolcorrection" >
    <i type="logical" name="LDIPOL"> F  </i>
    <i type="logical" name="LMONO"> F  </i>
    <i type="int" name="IDIPOL">     0</i>
    <i name="EPSILON">      1.00000000</i>
    <v name="DIPOL">   -100.00000000   -100.00000000   -100.00000000</v>
    <i name="EFIELD">      0.00000000</i>
   </separator>
  </separator>
  <separator name="grids" >
   <i type="int" name="NGX">    98</i>
   <i type="int" name="NGY">    98</i>
   <i type="int" name="NGZ">    98</i>
   <i type="int" name="NGXF">   168</i>
   <i type="int" name="NGYF">   168</i>
   <i type="int" name="NGZF">   168</i>
   <i type="logical" name="ADDGRID"> F  </i>
  </separator>
  <separator name="ionic" >
   <i type="int" name="NSW">   200</i>
   <i type="int" name="IBRION">     1</i>
   <i type="int" name="ISIF">     2</i>
   <i name="PSTRESS">      0.00000000</i>
   <i name="EDIFFG">     -0.01000000</i>
   <i type="int" name="NFREE">     2</i>
   <i name="POTIM">      0.50000000</i>
   <i name="SMASS">     -3.00000000</i>
   <i name="SCALEE">      1.00000000</i>
  </separator>
  <separator name="ionic md" >
   <i name="TEBEG">      0.00010000</i>
   <i name="TEEND">      0.00010000</i>
   <i type="int" name="NBLOCK">     1</i>
   <i type="int" name="KBLOCK">   200</i>
   <i type="int" name="NPACO">   256</i>
   <i name="APACO">     16.00000000</i>
  </separator>
  <separator name="symmetry" >
   <i type="int" name="ISYM">     0</i>
   <i name="SYMPREC">      0.00001000</i>
  </separator>
  <separator name="dos" >
   <i type="logical" name="LORBIT"> F  </i>
   <v name="RWIGS">     -1.00000000     -1.00000000     -1.00000000</v>
   <i type="int" name="NEDOS">   301</i>
   <i name="EMIN">     10.00000000</i>
   <i name="EMAX">    -10.00000000</i>
   <i name="EFERMI">      0.00000000</i>
  </separator>
  <separator name="writing" >
   <i type="int" name="NWRITE">     1</i>
   <i type="logical" name="LWAVE"> F  </i>
   <i type="logical" name="LCHARG"> F  </i>
   <i type="logical" name="LPARD"> F  </i>
   <i type="logical" name="LVTOT"> F  </i>
   <i type="logical" name="LVHAR"> F  </i>
   <i type="logical" name="LELF"> F  </i>
   <i type="logical" name="LOPTICS"> F  </i>
   <v name="STM">      0.00000000      0.00000000      0.00000000      0.00000000      0.00000000      0.00000000      0.00000000</v>
  </separator>
  <separator name="performance" >
   <i type="int" name="NPAR">     1</i>
   <i type="int" name="NSIM">     4</i>
   <i type="int" name="NBLK">    -1</i>
   <i type="logical" name="LPLANE"> T  </i>
   <i type="logical" name="LSCALAPACK"> F  </i>
   <i type="logical" name="LSCAAWARE"> F  </i>
   <i type="logical" name="LSCALU"> F  </i>
   <i type="logical" name="LASYNC"> F  </i>
   <i type="logical" name="LORBITALREAL"> F  </i>
  </separator>
  <separator name="miscellaneous" >
   <i type="int" name="IDIOT">     3</i>
   <i type="logical" name="LMUSIC"> F  </i>
   <v name="POMASS">     16.00000000      1.00000000     12.01100000</v>
   <v name="DARWINR">      0.00000000      0.00000000      0.00000000</v>
   <v name="DARWINV">      1.00000000      1.00000000      1.00000000</v>
   <i type="logical" name="LCORR"> T  </i>
  </separator>
  <i type="logical" name="GGA_COMPAT"> T  </i>
  <i type="logical" name="LBERRY"> F  </i>
  <i type="int" name="ICORELEVEL">     0</i>
  <i type="logical" name="LDAU"> F  </i>
  <i type="int" name="I_CONSTRAINED_M">     0</i>
  <separator name="electronic exchange-correlation" >
   <i type="string" name="GGA">--</i>
   <i type="int" name="VOSKOWN">     1</i>
   <i type="logical" name="LHFCALC"> F  </i>
   <i type="string" name="PRECFOCK"></i>
   <i type="logical" name="LSYMGRAD"> F  </i>
   <i type="logical" name="LHFONE"> F  </i>
   <i type="logical" name="LRHFCALC"> F  </i>
   <i type="logical" name="LTHOMAS"> F  </i>
   <i type="logical" name="LMODELHF"> F  </i>
   <i name="ENCUT4O">     -1.00000000</i>
   <i type="int" name="EXXOEP">     0</i>
   <i type="int" name="FOURORBIT">     0</i>
   <i name="AEXX">      0.00000000</i>
   <i name="HFALPHA">      0.00000000</i>
   <i name="MCALPHA">      0.00000000</i>
   <i name="ALDAX">      1.00000000</i>
   <i name="AGGAX">      1.00000000</i>
   <i name="ALDAC">      1.00000000</i>
   <i name="AGGAC">      1.00000000</i>
   <i type="int" name="NKREDX">     1</i>
   <i type="int" name="NKREDY">     1</i>
   <i type="int" name="NKREDZ">     1</i>
   <i type="logical" name="SHIFTRED"> F  </i>
   <i type="logical" name="ODDONLY"> F  </i>
   <i type="logical" name="EVENONLY"> F  </i>
   <i type="int" name="LMAXFOCK">     0</i>
   <i type="int" name="NMAXFOCKAE">     0</i>
   <i type="logical" name="LFOCKAEDFT"> F  </i>
   <i name="HFSCREEN">      0.00000000</i>
   <i name="HFSCREENC">      0.00000000</i>
   <i type="int" name="NBANDSGWLOW">     0</i>
  </separator>
  <separator name="vdW DFT" >
   <i type="logical" name="LUSE_VDW"> F  </i>
   <i name="Zab_VDW">     -0.84910000</i>
   <i name="PARAM1">      0.12340000</i>
   <i name="PARAM2">      1.00000000</i>
   <i name="PARAM3">      0.00000000</i>
  </separator>
  <separator name="model GW" >
   <i type="int" name="MODEL_GW">     0</i>
   <i name="MODEL_EPS0">    400.00000000</i>
   <i name="MODEL_ALPHA">      1.00000000</i>
  </separator>
  <separator name="linear response parameters" >
   <i type="logical" name="LEPSILON"> F  </i>
   <i type="logical" name="LRPA"> F  </i>
   <i type="logical" name="LNABLA"> F  </i>
   <i type="logical" name="LVEL"> F  </i>
   <i type="int" name="KINTER">     0</i>
   <i name="CSHIFT">      0.10000000</i>
   <i name="OMEGAMAX">     -1.00000000</i>
   <i name="DEG_THRESHOLD">      0.00200000</i>
  </separator>
  <separator name="orbital magnetization" >
   <i type="logical" name="NUCIND"> F  </i>
   <v name="MAGPOS">      0.00000000      0.00000000      0.00000000</v>
   <i type="logical" name="LNICSALL"> T  </i>
   <i type="logical" name="ORBITALMAG"> F  </i>
   <i type="logical" name="LMAGBLOCH"> F  </i>
   <i type="logical" name="LCHIMAG"> F  </i>
   <i type="logical" name="LGAUGE"> T  </i>
   <i type="int" name="MAGATOM">     0</i>
   <v name="MAGDIPOL">      0.00000000      0.00000000      0.00000000</v>
   <v name="AVECCONST">      0.00000000      0.00000000      0.00000000</v>
  </separator>
  <separator name="response functions" >
   <i type="logical" name="LADDER"> F  </i>
   <i type="logical" name="LHARTREE"> T  </i>
   <i type="int" name="IBSE">     0</i>
   <i type="logical" name="LTCTE"> F  </i>
   <i type="logical" name="LTETE"> F  </i>
   <i type="logical" name="LTRIPLET"> F  </i>
   <i type="logical" name="LFXCEPS"> F  </i>
   <i type="logical" name="L2ORDER"> F  </i>
   <i type="logical" name="LUSEW"> F  </i>
   <i name="ENCUTGW">     -2.00000000</i>
   <i name="ENCUTGWSOFT">     -2.00000000</i>
   <i name="ENCUTLF">     -1.00000000</i>
   <i type="int" name="LMAXMP2">    -1</i>
   <i name="SCISSOR">      0.00000000</i>
   <i type="int" name="NOMEGA">     0</i>
   <i type="int" name="NOMEGAR">     0</i>
   <i type="int" name="NBANDSGW">    -1</i>
   <i type="int" name="NBANDSO">    -1</i>
   <i type="int" name="NBANDSV">    -1</i>
   <i type="int" name="NELM">   400</i>
   <i type="int" name="DIM">     3</i>
   <i type="int" name="ANTIRES">     0</i>
   <i name="OMEGAMAX">    -30.00000000</i>
   <i name="OMEGATL">   -200.00000000</i>
   <i type="int" name="OMEGAGRID">     0</i>
   <i name="CSHIFT">     -0.10000000</i>
   <i type="logical" name="SELFENERGY"> F  </i>
   <i type="logical" name="LSPECTRAL"> F  </i>
   <i type="logical" name="ODDONLYGW"> F  </i>
   <i type="logical" name="EVENONLYGW"> F  </i>
   <i type="int" name="NKREDLFX">     1</i>
   <i type="int" name="NKREDLFY">     1</i>
   <i type="int" name="NKREDLFZ">     1</i>
   <i type="int" name="MAXMEM">  1800</i>
   <i type="int" name="TELESCOPE">     0</i>
  </separator>
 </parameters>
 <atominfo>
  <atoms>      12 </atoms>
  <types>       3 </types>
  <array name="atoms" >
   <dimension dim="1">ion</dimension>
   <field type="string">element</field>
   <field type="int">atomtype</field>
   <set>
    <rc><c>O </c><c>   1</c></rc>
    <rc><c>H </c><c>   2</c></rc>
    <rc><c>H </c><c>   2</c></rc>
    <rc><c>H </c><c>   2</c></rc>
    <rc><c>H </c><c>   2</c></rc>
    <rc><c>H </c><c>   2</c></rc>
    <rc><c>H </c><c>   2</c></rc>
    <rc><c>H </c><c>   2</c></rc>
    <rc><c>H </c><c>   2</c></rc>
    <rc><c>C </c><c>   3</c></rc>
    <rc><c>C </c><c>   3</c></rc>
    <rc><c>C </c><c>   3</c></rc>
   </set>
  </array>
  <array name="atomtypes" >
   <dimension dim="1">type</dimension>
   <field type="int">atomspertype</field>
   <field type="string">element</field>
   <field>mass</field>
   <field>valence</field>
   <field type="string">pseudopotential</field>
   <set>
    <rc><c>   1</c><c>O </c><c>     16.00000000</c><c>      6.00000000</c><c>  PAW_PBE O 08Apr2002                   </c></rc>
    <rc><c>   8</c><c>H </c><c>      1.00000000</c><c>      1.00000000</c><c>  PAW_PBE H 15Jun2001                   </c></rc>
    <rc><c>   3</c><c>C </c><c>     12.01100000</c><c>      4.00000000</c><c>  PAW_PBE C 08Apr2002                   </c></rc>
   </set>
  </array>
 </atominfo>
 <structure name="initialpos" >
  <crystal>
   <varray name="basis" >
    <v>      16.32993162      -8.16496581      -8.16496581 </v>
    <v>       0.00000000      14.14213562     -14.14213562 </v>
    <v>      11.54700538      11.54700538      11.54700538 </v>
   </varray>
   <i name="volume">   8000.00000000 </i>
   <varray name="rec_basis" >
    <v>       0.04082483      -0.02041241      -0.02041241 </v>
    <v>       0.00000000       0.03535534      -0.03535534 </v>
    <v>       0.02886751       0.02886751       0.02886751 </v>
   </varray>
  </crystal>
  <varray name="positions" >
   <v>       0.41937505       0.53800663       0.63470434 </v>
   <v>       0.35607785       0.46306320       0.60725839 </v>
   <v>       0.35647354       0.48009993       0.69546304 </v>
   <v>       0.42515216       0.43602353       0.65795398 </v>
   <v>       0.49773824       0.52110854       0.70105230 </v>
   <v>       0.42982485       0.56927599       0.73337966 </v>
   <v>       0.52732333       0.64291965       0.70830298 </v>
   <v>       0.45975244       0.66317583       0.65374176 </v>
   <v>       0.52849615       0.61506539       0.62358887 </v>
   <v>       0.38791709       0.47628884       0.64999191 </v>
   <v>       0.46084864       0.56054982       0.68816679 </v>
   <v>       0.49612352       0.62416788       0.66706786 </v>
  </varray>
  <varray name="selective"  type="logical" >
   <v type="logical" >  T  T  T </v>
   <v type="logical" >  T  T  T </v>
   <v type="logical" >  T  T  T </v>
   <v type="logical" >  T  T  T </v>
   <v type="logical" >  T  T  T </v>
   <v type="logical" >  T  T  T </v>
   <v type="logical" >  T  T  T </v>
   <v type="logical" >  T  T  T </v>
   <v type="logical" >  T  T  T </v>
   <v type="logical" >  T  T  T </v>
   <v type="logical" >  T  T  T </v>
   <v type="logical" >  T  T  T </v>
  </varray>
  <nose>
   <v>      -3.00000000       0.00000000       0.00010000       0.00010000 </v>
  </nose>
 </structure>
 <calculation>
  <scstep>
   <time name="dav">    4.65    5.79</time>
   <time name="total">    5.07    6.22</time>
   <energy>
    <i name="alphaZ">      0.33883997 </i>
    <i name="ewald">   1442.22754155 </i>
    <i name="hartreedc">  -2124.23128079 </i>
    <i name="XCdc">     85.66689047 </i>
    <i name="pawpsdc">    689.18783552 </i>
    <i name="pawaedc">   -692.76574588 </i>
    <i name="eentropy">      0.00057979 </i>
    <i name="bandstr">   -196.78113446 </i>
    <i name="atom">    973.47392897 </i>
    <i name="e_fr_energy">    177.11745514 </i>
    <i name="e_wo_entrp">    177.11687535 </i>
    <i name="e_0_energy">    177.11726187 </i>
   </energy>
  </scstep>
  <scstep>
   <time name="dav">    1.28    1.28</time>
   <time name="total">    1.28    1.30</time>
   <energy>
    <i name="e_fr_energy">     32.41329067 </i>
    <i name="e_wo_entrp">     32.41271088 </i>
    <i name="e_0_energy">     32.41309741 </i>
   </energy>
  </scstep>
  <scstep>
   <time name="dav">    1.21    1.21</time>
   <time name="total">    1.21    1.24</time>
   <energy>
    <i name="e_fr_energy">    -56.06528187 </i>
    <i name="e_wo_entrp">    -56.06528187 </i>
    <i name="e_0_energy">    -56.06528187 </i>
   </energy>
  </scstep>
  <scstep>
   <time name="dav">    0.95    0.95</time>
   <time name="total">    0.95    0.97</time>
   <energy>
    <i name="e_fr_energy">    -69.11272317 </i>
    <i name="e_wo_entrp">    -69.11330296 </i>
    <i name="e_0_energy">    -69.11291643 </i>
   </energy>
  </scstep>
  <scstep>
   <time name="dav">    1.21    1.21</time>
   <time name="total">    1.21    1.24</time>
   <energy>
    <i name="e_fr_energy">    -69.54926155 </i>
    <i name="e_wo_entrp">    -69.54984134 </i>
    <i name="e_0_energy">    -69.54945481 </i>
   </energy>
  </scstep>
  <scstep>
   <time name="dav">    1.08    1.08</time>
   <time name="total">    1.08    1.10</time>
   <energy>
    <i name="e_fr_energy">    -69.55118134 </i>
    <i name="e_wo_entrp">    -69.55118134 </i>
    <i name="e_0_energy">    -69.55118134 </i>
   </energy>
  </scstep>
  <scstep>
   <time name="dav">    1.21    1.21</time>
   <time name="total">    1.22    1.24</time>
   <energy>
    <i name="e_fr_energy">    -69.55063857 </i>
    <i name="e_wo_entrp">    -69.55121836 </i>
    <i name="e_0_energy">    -69.55083183 </i>
   </energy>
  </scstep>
  <scstep>
   <time name="dav">    1.08    1.08</time>
   <time name="total">    1.08    1.10</time>
   <energy>
    <i name="e_fr_energy">    -69.55064031 </i>
    <i name="e_wo_entrp">    -69.55122010 </i>
    <i name="e_0_energy">    -69.55083357 </i>
   </energy>
  </scstep>
  <scstep>
   <time name="dav">    1.09    1.09</time>
   <time name="total">    1.09    1.11</time>
   <energy>
    <i name="e_fr_energy">    -69.55064038 </i>
    <i name="e_wo_entrp">    -69.55122018 </i>
    <i name="e_0_energy">    -69.55083365 </i>
   </energy>
  </scstep>
  <scstep>
   <time name="dav">    0.95    0.95</time>
   <time name="total">    1.03    1.05</time>
   <energy>
    <i name="e_fr_energy">    -69.55064040 </i>
    <i name="e_wo_entrp">    -69.55122019 </i>
    <i name="e_0_energy">    -69.55083366 </i>
   </energy>
  </scstep>
  <scstep>
   <time name="diag">    0.11    0.11</time>
   <time name="diis">    0.67    0.67</time>
   <time name="orth">    0.00    0.00</time>
   <time name="total">    1.28    1.30</time>
   <energy>
    <i name="e_fr_energy">    -64.45277835 </i>
    <i name="e_wo_entrp">    -64.45277835 </i>
    <i name="e_0_energy">    -64.45277835 </i>
   </energy>
  </scstep>
  <scstep>
   <time name="diag">    0.10    0.11</time>
   <time name="diis">    0.67    0.67</time>
   <time name="orth">    0.00    0.00</time>
   <time name="total">    1.28    1.30</time>
   <energy>
    <i name="e_fr_energy">    -63.26916877 </i>
    <i name="e_wo_entrp">    -63.26974856 </i>
    <i name="e_0_energy">    -63.26936203 </i>
   </energy>
  </scstep>
  <scstep>
   <time name="diag">    0.11    0.11</time>
   <time name="diis">    0.68    0.68</time>
   <time name="orth">    0.00    0.00</time>
   <time name="total">    1.30    1.32</time>
   <energy>
    <i name="e_fr_energy">    -63.05960920 </i>
    <i name="e_wo_entrp">    -63.05960920 </i>
    <i name="e_0_energy">    -63.05960920 </i>
   </energy>
  </scstep>
  <scstep>
   <time name="diag">    0.10    0.10</time>
   <time name="diis">    0.70    0.70</time>
   <time name="orth">    0.00    0.00</time>
   <time name="total">    1.31    1.33</time>
   <energy>
    <i name="e_fr_energy">    -63.04273227 </i>
    <i name="e_wo_entrp">    -63.04331206 </i>
    <i name="e_0_energy">    -63.04292553 </i>
   </energy>
  </scstep>
  <scstep>
   <time name="diag">    0.10    0.11</time>
   <time name="diis">    0.67    0.67</time>
   <time name="orth">    0.00    0.00</time>
   <time name="total">    1.28    1.31</time>
   <energy>
    <i name="e_fr_energy">    -63.03902078 </i>
    <i name="e_wo_entrp">    -63.03960057 </i>
    <i name="e_0_energy">    -63.03921404 </i>
   </energy>
  </scstep>
  <scstep>
   <time name="diag">    0.10    0.11</time>
   <time name="diis">    0.67    0.67</time>
   <time name="orth">    0.00    0.00</time>
   <time name="total">    1.29    1.31</time>
   <energy>
    <i name="e_fr_energy">    -63.03719952 </i>
    <i name="e_wo_entrp">    -63.03777931 </i>
    <i name="e_0_energy">    -63.03739279 </i>
   </energy>
  </scstep>
  <scstep>
   <time name="diag">    0.10    0.10</time>
   <time name="diis">    0.67    0.67</time>
   <time name="orth">    0.00    0.00</time>
   <time name="total">    1.29    1.31</time>
   <energy>
    <i name="e_fr_energy">    -63.04236210 </i>
    <i name="e_wo_entrp">    -63.04236210 </i>
    <i name="e_0_energy">    -63.04236210 </i>
   </energy>
  </scstep>
  <scstep>
   <time name="diag">    0.11    0.11</time>
   <time name="diis">    0.67    0.67</time>
   <time name="orth">    0.00    0.00</time>
   <time name="total">    1.29    1.31</time>
   <energy>
    <i name="e_fr_energy">    -63.04809255 </i>
    <i name="e_wo_entrp">    -63.04867234 </i>
    <i name="e_0_energy">    -63.04828581 </i>
   </energy>
  </scstep>
  <scstep>
   <time name="diag">    1.14    1.14</time>
   <time name="diis">    0.69    0.69</time>
   <time name="orth">    0.01    0.00</time>
   <time name="total">    4.00    4.25</time>
   <energy>
    <i name="e_fr_energy">    -63.05184178 </i>
    <i name="e_wo_entrp">    -63.05242157 </i>
    <i name="e_0_energy">    -63.05203504 </i>
   </energy>
  </scstep>
  <scstep>
   <time name="diag">    0.11    0.11</time>
   <time name="diis">    0.68    0.68</time>
   <time name="orth">    0.00    0.00</time>
   <time name="total">    1.33    1.33</time>
   <energy>
    <i name="e_fr_energy">    -63.05660940 </i>
    <i name="e_wo_entrp">    -63.05660940 </i>
    <i name="e_0_energy">    -63.05660940 </i>
   </energy>
  </scstep>
  <scstep>
   <time name="diag">    0.11    0.11</time>
   <time name="diis">    0.71    0.71</time>
   <time name="orth">    0.00    0.00</time>
   <time name="total">    1.37    1.37</time>
   <energy>
    <i name="e_fr_energy">    -63.05683389 </i>
    <i name="e_wo_entrp">    -63.05683389 </i>
    <i name="e_0_energy">    -63.05683389 </i>
   </energy>
  </scstep>
  <scstep>
   <time name="diag">    0.11    0.11</time>
   <time name="diis">    0.68    0.68</time>
   <time name="orth">    0.00    0.00</time>
   <time name="total">    1.48    1.49</time>
   <energy>
    <i name="e_fr_energy">    -63.05770616 </i>
    <i name="e_wo_entrp">    -63.05770616 </i>
    <i name="e_0_energy">    -63.05770616 </i>
   </energy>
  </scstep>
  <scstep>
   <time name="diag">    0.11    0.11</time>
   <time name="diis">    0.74    0.74</time>
   <time name="orth">    0.00    0.00</time>
   <time name="total">    1.40    1.40</time>
   <energy>
    <i name="e_fr_energy">    -63.05729460 </i>
    <i name="e_wo_entrp">    -63.05787439 </i>
    <i name="e_0_energy">    -63.05748786 </i>
   </energy>
  </scstep>
  <scstep>
   <time name="diag">    0.10    0.10</time>
   <time name="diis">    0.66    0.66</time>
   <time name="orth">    0.00    0.00</time>
   <time name="total">    1.31    1.31</time>
   <energy>
    <i name="e_fr_energy">    -63.05754409 </i>
    <i name="e_wo_entrp">    -63.05812389 </i>
    <i name="e_0_energy">    -63.05773736 </i>
   </energy>
  </scstep>
  <scstep>
   <time name="diag">    0.11    0.11</time>
   <time name="diis">    0.52    0.52</time>
   <time name="orth">    0.00    0.00</time>
   <time name="total">    1.18    1.18</time>
   <energy>
    <i name="e_fr_energy">    -63.05815760 </i>
    <i name="e_wo_entrp">    -63.05815760 </i>
    <i name="e_0_energy">    -63.05815760 </i>
   </energy>
  </scstep>
  <scstep>
   <time name="diag">    0.11    0.11</time>
   <time name="diis">    0.65    0.65</time>
   <time name="orth">    0.00    0.00</time>
   <time name="total">    1.31    1.32</time>
   <energy>
    <i name="e_fr_energy">    -63.05820763 </i>
    <i name="e_wo_entrp">    -63.05820763 </i>
    <i name="e_0_energy">    -63.05820763 </i>
   </energy>
  </scstep>
  <scstep>
   <time name="diag">    0.11    0.11</time>
   <time name="diis">    0.47    0.47</time>
   <time name="orth">    0.00    0.00</time>
   <time name="total">    1.14    1.15</time>
   <energy>
    <i name="e_fr_energy">    -63.05821216 </i>
    <i name="e_wo_entrp">    -63.05821216 </i>
    <i name="e_0_energy">    -63.05821216 </i>
   </energy>
  </scstep>
  <scstep>
   <time name="diag">    0.11    0.11</time>
   <time name="diis">    0.48    0.49</time>
   <time name="orth">    0.00    0.00</time>
   <time name="total">    1.16    1.16</time>
   <energy>
    <i name="e_fr_energy">    -63.05822022 </i>
    <i name="e_wo_entrp">    -63.05822022 </i>
    <i name="e_0_energy">    -63.05822022 </i>
   </energy>
  </scstep>
  <scstep>
   <time name="diag">    0.11    0.11</time>
   <time name="diis">    0.46    0.46</time>
   <time name="orth">    0.00    0.00</time>
   <time name="total">    1.14    1.14</time>
   <energy>
    <i name="e_fr_energy">    -63.05764146 </i>
    <i name="e_wo_entrp">    -63.05822125 </i>
    <i name="e_0_energy">    -63.05783472 </i>
   </energy>
  </scstep>
  <scstep>
   <time name="diag">    0.11    0.11</time>
   <time name="diis">    0.41    0.41</time>
   <time name="orth">    0.00    0.00</time>
   <time name="total">    0.97    0.97</time>
   <energy>
    <i name="alphaZ">      0.33883997 </i>
    <i name="ewald">   1442.22754155 </i>
    <i name="hartreedc">  -2247.03339311 </i>
    <i name="XCdc">     91.98924969 </i>
    <i name="pawpsdc">   1792.82048665 </i>
    <i name="pawaedc">  -1797.02284981 </i>
    <i name="eentropy">      0.00057979 </i>
    <i name="bandstr">   -319.85202568 </i>
    <i name="atom">    973.47392897 </i>
    <i name="e_fr_energy">    -63.05764198 </i>
    <i name="e_wo_entrp">    -63.05822177 </i>
    <i name="e_0_energy">    -63.05783524 </i>
   </energy>
  </scstep>
  <structure>
   <crystal>
    <varray name="basis" >
     <v>      16.32993162      -8.16496581      -8.16496581 </v>
     <v>       0.00000000      14.14213562     -14.14213562 </v>
     <v>      11.54700538      11.54700538      11.54700538 </v>
    </varray>
    <i name="volume">   8000.00000000 </i>
    <varray name="rec_basis" >
     <v>       0.04082483      -0.02041241      -0.02041241 </v>
     <v>       0.00000000       0.03535534      -0.03535534 </v>
     <v>       0.02886751       0.02886751       0.02886751 </v>
    </varray>
   </crystal>
   <varray name="positions" >
    <v>       0.41937505       0.53800663       0.63470434 </v>
    <v>       0.35607785       0.46306320       0.60725839 </v>
    <v>       0.35647354       0.48009993       0.69546304 </v>
    <v>       0.42515216       0.43602353       0.65795398 </v>
    <v>       0.49773824       0.52110854       0.70105230 </v>
    <v>       0.42982485       0.56927599       0.73337966 </v>
    <v>       0.52732333       0.64291965       0.70830298 </v>
    <v>       0.45975244       0.66317583       0.65374176 </v>
    <v>       0.52849615       0.61506539       0.62358887 </v>
    <v>       0.38791709       0.47628884       0.64999191 </v>
    <v>       0.46084864       0.56054982       0.68816679 </v>
    <v>       0.49612352       0.62416788       0.66706786 </v>
   </varray>
  </structure>
  <varray name="forces" >
   <v>       0.00857355      -0.00297484      -0.00000449 </v>
   <v>       0.00208327       0.00135514      -0.00908417 </v>
   <v>      -0.00755199       0.00428967      -0.00406104 </v>
   <v>      -0.00306376       0.00184142       0.00678051 </v>
   <v>       0.00817367       0.00192316       0.00137788 </v>
   <v>       0.00477839       0.00038950       0.00415662 </v>
   <v>      -0.00017867      -0.00135084      -0.00951402 </v>
   <v>      -0.00327925      -0.00200017       0.00881165 </v>
   <v>      -0.00920213      -0.00222132       0.00166641 </v>
   <v>      -0.00537987      -0.00090300      -0.00262307 </v>
   <v>       0.00867788      -0.00305761       0.00146354 </v>
   <v>      -0.00363107       0.00270888       0.00103019 </v>
  </varray>
  <varray name="stress" >
   <v>      -0.27254733       0.02342436      -0.00906446 </v>
   <v>       0.02342436      -0.30907855      -0.01246649 </v>
   <v>      -0.00906446      -0.01246649      -0.27691165 </v>
  </varray>
  <energy>
   <i name="e_fr_energy">    -63.13832822 </i>
   <i name="e_wo_entrp">    -63.13852148 </i>
   <i name="e_0_energy">      0.00057979 </i>
  </energy>
  <time name="totalsc">   45.52   47.36</time>
  <eigenvalues>
   <array>
    <dimension dim="1">band</dimension>
    <dimension dim="2">kpoint</dimension>
    <dimension dim="3">spin</dimension>
    <field>eigene</field>
    <field>occ</field>
    <set>
     <set comment="spin 1">
      <set comment="kpoint 1">
       <r>  -25.7224    1.0000 </r>
       <r>  -18.7829    1.0000 </r>
       <r>  -16.5122    1.0000 </r>
       <r>  -14.7540    1.0000 </r>
       <r>  -11.9228    1.0000 </r>
       <r>  -11.6054    1.0000 </r>
       <r>  -10.9283    1.0000 </r>
       <r>  -10.0880    1.0000 </r>
       <r>   -9.2104    1.0000 </r>
       <r>   -8.7258    1.0000 </r>
       <r>   -8.3808    1.0000 </r>
       <r>   -7.5211    1.0000 </r>
       <r>   -5.7720    1.0000 </r>
       <r>   -0.4858    0.0000 </r>
       <r>   -0.1147    0.0000 </r>
       <r>    0.0698    0.0000 </r>
       <r>    0.1460    0.0000 </r>
       <r>    0.1690    0.0000 </r>
       <r>    0.3232    0.0000 </r>
       <r>    0.7898    0.0000 </r>
      </set>
     </set>
    </set>
   </array>
  </eigenvalues>
  <separator name="orbital magnetization" >
   <v name="MAGDIPOLOUT">      0.00000000      0.00000000      0.00000000</v>
  </separator>
 </calculation>
 <structure name="finalpos" >
  <crystal>
   <varray name="basis" >
    <v>      16.32993162      -8.16496581      -8.16496581 </v>
    <v>       0.00000000      14.14213562     -14.14213562 </v>
    <v>      11.54700538      11.54700538      11.54700538 </v>
   </varray>
   <i name="volume">   8000.00000000 </i>
   <varray name="rec_basis" >
    <v>       0.04082483      -0.02041241      -0.02041241 </v>
    <v>       0.00000000       0.03535534      -0.03535534 </v>
    <v>       0.02886751       0.02886751       0.02886751 </v>
   </varray>
  </crystal>
  <varray name="positions" >
   <v>       0.41937505       0.53800663       0.63470434 </v>
   <v>       0.35607785       0.46306320       0.60725839 </v>
   <v>       0.35647354       0.48009993       0.69546304 </v>
   <v>       0.42515216       0.43602353       0.65795398 </v>
   <v>       0.49773824       0.52110854       0.70105230 </v>
   <v>       0.42982485       0.56927599       0.73337966 </v>
   <v>       0.52732333       0.64291965       0.70830298 </v>
   <v>       0.45975244       0.66317583       0.65374176 </v>
   <v>       0.52849615       0.61506539       0.62358887 </v>
   <v>       0.38791709       0.47628884       0.64999191 </v>
   <v>       0.46084864       0.56054982       0.68816679 </v>
   <v>       0.49612352       0.62416788       0.66706786 </v>
  </varray>
  <varray name="selective"  type="logical" >
   <v type="logical" >  T  T  T </v>
   <v type="logical" >  T  T  T </v>
   <v type="logical" >  T  T  T </v>
   <v type="logical" >  T  T  T </v>
   <v type="logical" >  T  T  T </v>
   <v type="logical" >  T  T  T </v>
   <v type="logical" >  T  T  T </v>
   <v type="logical" >  T  T  T </v>
   <v type="logical" >  T  T  T </v>
   <v type="logical" >  T  T  T </v>
   <v type="logical" >  T  T  T </v>
   <v type="logical" >  T  T  T </v>
  </varray>
  <nose>
   <v>      -3.00000000       0.00000000       0.00010000       0.00010000 </v>
  </nose>
 </structure>
</modeling>
