 running on   20 total cores
 distrk:  each k-point on   20 cores,    1 groups
 distr:  one band on   20 cores,    1 groups
 using from now: INCAR     
 vasp.5.3.2 13Sep12 (build Oct  1 2014 14:03:07) gamma-only                     
  
 POSCAR found type information on POSCAR  O  C  H 
 POSCAR found :  3 types and      10 ions

 ----------------------------------------------------------------------------- 
|                                                                             |
|           W    W    AA    RRRRR   N    N  II  N    N   GGGG   !!!           |
|           W    W   A  A   R    R  NN   N  II  NN   N  G    G  !!!           |
|           W    W  A    A  R    R  N N  N  II  N N  N  G       !!!           |
|           W WW W  AAAAAA  RRRRR   N  N N  II  N  N N  G  GGG   !            |
|           WW  WW  A    A  R   R   N   NN  II  N   NN  G    G                |
|           W    W  A    A  R    R  N    N  II  N    N   GGGG   !!!           |
|                                                                             |
|      For optimal performance we recommend that you set                      |
|        NPAR = 4 - approx SQRT( number of cores)                             |
|      (number of cores/NPAR must be integer)                                 |
|      This setting will greatly improve the performance of VASP for DFT.     |
|      The default NPAR=number of cores might be grossly inefficient          |
|      on modern multi-core architectures or massively parallel machines.     |
|      Do your own testing.                                                   |
|      Unfortunately you need to use the default for hybrid, GW and RPA       |
|      calculations.                                                          |
|                                                                             |
 ----------------------------------------------------------------------------- 

 LDA part: xc-table for Pade appr. of Perdew
 POSCAR found type information on POSCAR  O  C  H 
 POSCAR found :  3 types and      10 ions
 POSCAR, INCAR and KPOINTS ok, starting setup
 WARNING: small aliasing (wrap around) errors must be expected
 FFT: planning ...
 WAVECAR not read
 entering main loop
       N       E                     dE             d eps       ncg     rms          rms(c)
DAV:   1     0.161341098805E+03    0.16134E+03   -0.46114E+03    52   0.512E+02
DAV:   2     0.304819782926E+02   -0.13086E+03   -0.13041E+03    62   0.117E+02
DAV:   3    -0.387330690596E+02   -0.69215E+02   -0.68511E+02    48   0.767E+01
DAV:   4    -0.582024450095E+02   -0.19469E+02   -0.19462E+02    48   0.469E+01
DAV:   5    -0.589395355537E+02   -0.73709E+00   -0.73753E+00    40   0.989E+00
DAV:   6    -0.589511216529E+02   -0.11586E-01   -0.11580E-01    56   0.140E+00
DAV:   7    -0.589517607828E+02   -0.63913E-03   -0.59324E-04    48   0.151E-01
DAV:   8    -0.589511834706E+02    0.57731E-03   -0.24793E-05    56   0.287E-02
DAV:   9    -0.589517633942E+02   -0.57992E-03   -0.13201E-06    56   0.630E-03
DAV:  10    -0.589511836099E+02    0.57978E-03   -0.61391E-08    48   0.150E-03    0.136E+01
RMM:  11    -0.539128684988E+02    0.50383E+01   -0.13240E+01    36   0.181E+01    0.834E+00
RMM:  12    -0.530922939844E+02    0.82057E+00   -0.29073E+00    36   0.859E+00    0.520E+00
RMM:  13    -0.525358285934E+02    0.55647E+00   -0.10224E+00    36   0.493E+00    0.222E+00
RMM:  14    -0.524275668432E+02    0.10826E+00   -0.22374E-01    37   0.226E+00    0.103E+00
RMM:  15    -0.524127312260E+02    0.14836E-01   -0.84120E-02    36   0.154E+00    0.477E-01
RMM:  16    -0.524091612847E+02    0.35699E-02   -0.14204E-02    36   0.550E-01    0.201E-01
RMM:  17    -0.524134649994E+02   -0.43037E-02   -0.64344E-03    36   0.375E-01    0.998E-02
RMM:  18    -0.524198321059E+02   -0.63671E-02   -0.35151E-03    36   0.248E-01    0.413E-02
RMM:  19    -0.524274025794E+02   -0.75705E-02   -0.23495E-03    36   0.203E-01    0.589E-02
RMM:  20    -0.524305418442E+02   -0.31393E-02   -0.16349E-03    38   0.166E-01    0.446E-02
RMM:  21    -0.524324397206E+02   -0.18979E-02   -0.28280E-04    36   0.753E-02    0.128E-02
RMM:  22    -0.524337808073E+02   -0.13411E-02   -0.13216E-04    37   0.467E-02    0.845E-03
RMM:  23    -0.524346339943E+02   -0.85319E-03   -0.86304E-05    35   0.356E-02    0.404E-03
RMM:  24    -0.524347395948E+02   -0.10560E-03   -0.96404E-06    34   0.108E-02    0.444E-03
RMM:  25    -0.524343338412E+02    0.40575E-03   -0.90131E-06    34   0.130E-02    0.230E-03
RMM:  26    -0.524343625067E+02   -0.28666E-04   -0.10391E-06    24   0.569E-03    0.234E-03
RMM:  27    -0.524344051870E+02   -0.42680E-04   -0.17785E-06    25   0.630E-03    0.861E-04
RMM:  28    -0.524344111711E+02   -0.59841E-05   -0.21816E-07    22   0.272E-03    0.414E-04
RMM:  29    -0.524344202990E+02   -0.91278E-05   -0.26444E-07    23   0.244E-03    0.627E-04
RMM:  30    -0.524344219307E+02   -0.16318E-05   -0.12275E-07    22   0.181E-03    0.255E-04
RMM:  31    -0.524344231575E+02   -0.12267E-05    0.00000E+00    11   0.946E-04    0.132E-04
RMM:  32    -0.524344243281E+02   -0.11706E-05   -0.90242E-09    12   0.116E-03    0.421E-05
RMM:  33    -0.524344249655E+02   -0.63737E-06    0.00000E+00    11   0.121E-03
   1 F= -.52498583E+02 E0= -.52498776E+02  d E =-.524986E+02
 curvature:   0.00 expect dE= 0.000E+00 dE for cont linesearch  0.000E+00
 trial: gam= 0.00000 g(F)=  0.145E+02 g(S)=  0.000E+00 ort = 0.000E+00 (trialstep = 0.100E+01)
 search vector abs. value=  0.145E+02
 bond charge predicted
       N       E                     dE             d eps       ncg     rms          rms(c)
DAV:   1    -0.293488367240E+02    0.23086E+02   -0.17426E+03    36   0.296E+02    0.186E+01
RMM:   2    -0.396592573866E+02   -0.10310E+02   -0.12110E+02    36   0.789E+01    0.876E+00
RMM:   3    -0.383361872635E+02    0.13231E+01   -0.54054E+00    38   0.145E+01    0.556E+00
RMM:   4    -0.377128021943E+02    0.62339E+00   -0.25308E+00    36   0.905E+00    0.138E+00
RMM:   5    -0.376736368638E+02    0.39165E-01   -0.13001E-01    37   0.209E+00    0.685E-01
RMM:   6    -0.376546353164E+02    0.19002E-01   -0.71008E-02    36   0.113E+00    0.339E-01
RMM:   7    -0.376562564198E+02   -0.16211E-02   -0.27205E-02    37   0.614E-01    0.227E-01
RMM:   8    -0.376556633013E+02    0.59312E-03   -0.83776E-03    36   0.395E-01    0.103E-01
RMM:   9    -0.376618144749E+02   -0.61512E-02   -0.26267E-03    36   0.241E-01    0.965E-02
RMM:  10    -0.376647096758E+02   -0.28952E-02   -0.21482E-03    37   0.172E-01    0.366E-02
RMM:  11    -0.376692215883E+02   -0.45119E-02   -0.13047E-03    36   0.139E-01    0.217E-02
RMM:  12    -0.376698578942E+02   -0.63631E-03   -0.26117E-04    37   0.566E-02    0.109E-02
RMM:  13    -0.376707905728E+02   -0.93268E-03   -0.10079E-04    36   0.326E-02    0.722E-03
RMM:  14    -0.376719251102E+02   -0.11345E-02   -0.47325E-05    36   0.246E-02    0.864E-03
RMM:  15    -0.376716123782E+02    0.31273E-03   -0.15790E-05    33   0.154E-02    0.286E-03
RMM:  16    -0.376723286663E+02   -0.71629E-03   -0.83796E-06    32   0.110E-02    0.214E-03
RMM:  17    -0.376718048018E+02    0.52386E-03   -0.22617E-06    26   0.669E-03    0.255E-03
RMM:  18    -0.376718477238E+02   -0.42922E-04   -0.19350E-06    25   0.565E-03    0.743E-04
RMM:  19    -0.376724394062E+02   -0.59168E-03   -0.47924E-07    23   0.318E-03    0.616E-04
RMM:  20    -0.376724453357E+02   -0.59295E-05   -0.22523E-07    23   0.220E-03    0.458E-04
RMM:  21    -0.376724497265E+02   -0.43908E-05   -0.13458E-07    16   0.162E-03    0.117E-04
RMM:  22    -0.376724508046E+02   -0.10781E-05   -0.79271E-08    18   0.162E-03    0.216E-04
RMM:  23    -0.376724514440E+02   -0.63941E-06   -0.21149E-08    13   0.106E-03
   2 F= -.37747766E+02 E0= -.37747766E+02  d E =0.147508E+02
 trial-energy change:   14.750817  1 .order   34.285492  -14.543172   83.114156
 step:   0.1489(harm=  0.1489)  dis= 0.04777  next Energy=   -53.581471 (dE=-0.108E+01)
 bond charge predicted
       N       E                     dE             d eps       ncg     rms          rms(c)
DAV:   1    -0.526288558858E+02   -0.14956E+02   -0.13636E+03    36   0.269E+02    0.170E+01
RMM:   2    -0.548242691400E+02   -0.21954E+01   -0.49661E+01    36   0.485E+01    0.741E+00
RMM:   3    -0.543261602507E+02    0.49811E+00   -0.28113E+00    37   0.100E+01    0.543E+00
RMM:   4    -0.541335725725E+02    0.19259E+00   -0.22995E+00    36   0.776E+00    0.247E+00
RMM:   5    -0.540499386584E+02    0.83634E-01   -0.84236E-02    36   0.179E+00    0.156E+00
RMM:   6    -0.540328193667E+02    0.17119E-01   -0.39666E-01    36   0.317E+00    0.778E-01
RMM:   7    -0.540199555718E+02    0.12864E-01   -0.35726E-02    36   0.953E-01    0.265E-01
RMM:   8    -0.540257812768E+02   -0.58257E-02   -0.15709E-02    36   0.698E-01    0.196E-01
RMM:   9    -0.540258582967E+02   -0.77020E-04   -0.14073E-03    36   0.181E-01    0.102E-01
RMM:  10    -0.540321712628E+02   -0.63130E-02   -0.76735E-03    36   0.385E-01    0.117E-01
RMM:  11    -0.540329727592E+02   -0.80150E-03   -0.15250E-03    36   0.188E-01    0.344E-02
RMM:  12    -0.540342025378E+02   -0.12298E-02   -0.31296E-04    37   0.761E-02    0.231E-02
RMM:  13    -0.540354870071E+02   -0.12845E-02   -0.22865E-04    36   0.648E-02    0.166E-02
RMM:  14    -0.540355757300E+02   -0.88723E-04   -0.76952E-05    38   0.399E-02    0.231E-02
RMM:  15    -0.540366637732E+02   -0.10880E-02   -0.55450E-05    35   0.354E-02    0.108E-02
RMM:  16    -0.540367162231E+02   -0.52450E-04   -0.33009E-05    38   0.260E-02    0.119E-02
RMM:  17    -0.540362320607E+02    0.48416E-03   -0.17094E-05    35   0.195E-02    0.330E-03
RMM:  18    -0.540362865508E+02   -0.54490E-04   -0.27032E-06    27   0.710E-03    0.407E-03
RMM:  19    -0.540363137569E+02   -0.27206E-04   -0.19011E-06    25   0.691E-03    0.124E-03
RMM:  20    -0.540363222694E+02   -0.85126E-05   -0.37801E-07    23   0.360E-03    0.511E-04
RMM:  21    -0.540363281205E+02   -0.58511E-05   -0.21958E-07    23   0.253E-03    0.514E-04
RMM:  22    -0.540363297626E+02   -0.16421E-05   -0.70736E-08    17   0.154E-03    0.423E-04
RMM:  23    -0.540363313230E+02   -0.15604E-05   -0.80110E-08    19   0.169E-03    0.152E-04
RMM:  24    -0.540363315209E+02   -0.19798E-06    0.00000E+00    12   0.112E-03
   3 F= -.54100093E+02 E0= -.54100286E+02  d E =-.160151E+01
 curvature:  -0.07 expect dE=-0.434E+00 dE for cont linesearch -0.287E+00
 ZBRENT: interpolating
 opt :   0.2193  next Energy=   -54.363532 (dE=-0.186E+01)
 bond charge predicted
       N       E                     dE             d eps       ncg     rms          rms(c)
DAV:   1    -0.544561401564E+02   -0.41981E+00   -0.96416E+00    38   0.236E+01    0.874E-01
RMM:   2    -0.544751779165E+02   -0.19038E-01   -0.27896E-01    37   0.359E+00    0.474E-01
RMM:   3    -0.544712220027E+02    0.39559E-02   -0.11049E-02    36   0.648E-01    0.244E-01
RMM:   4    -0.544713145593E+02   -0.92557E-04   -0.60972E-03    36   0.436E-01    0.703E-02
RMM:   5    -0.544717558354E+02   -0.44128E-03   -0.23960E-04    36   0.916E-02    0.430E-02
RMM:   6    -0.544711983782E+02    0.55746E-03   -0.69412E-04    36   0.114E-01    0.266E-02
RMM:   7    -0.544712011307E+02   -0.27526E-05   -0.48248E-05    36   0.359E-02    0.106E-02
RMM:   8    -0.544713335771E+02   -0.13245E-03   -0.98131E-05    36   0.477E-02    0.135E-02
RMM:   9    -0.544713449226E+02   -0.11345E-04   -0.84228E-06    35   0.142E-02    0.676E-03
RMM:  10    -0.544714853738E+02   -0.14045E-03   -0.68211E-05    37   0.349E-02    0.920E-03
RMM:  11    -0.544714907826E+02   -0.54089E-05   -0.18251E-06    24   0.803E-03    0.678E-03
RMM:  12    -0.544715477521E+02   -0.56969E-04   -0.51701E-05    36   0.313E-02    0.851E-03
RMM:  13    -0.544715509658E+02   -0.32138E-05   -0.11747E-06    24   0.646E-03    0.588E-03
RMM:  14    -0.544715677584E+02   -0.16793E-04   -0.20506E-05    36   0.196E-02    0.369E-03
RMM:  15    -0.544715710185E+02   -0.32602E-05   -0.39331E-07    24   0.394E-03    0.264E-03
RMM:  16    -0.544721579937E+02   -0.58698E-03   -0.33374E-06    30   0.806E-03    0.113E-03
RMM:  17    -0.544721599275E+02   -0.19338E-05   -0.20556E-07    23   0.243E-03    0.824E-04
RMM:  18    -0.544721615416E+02   -0.16141E-05   -0.36936E-07    23   0.285E-03    0.386E-04
RMM:  19    -0.544721625115E+02   -0.96995E-06   -0.30763E-08    16   0.138E-03
   4 F= -.54535806E+02 E0= -.54535806E+02  d E =-.203722E+01
 curvature:  -0.07 expect dE=-0.309E+00 dE for cont linesearch -0.114E+00
 ZBRENT: interpolating
 opt :   0.3467  next Energy=   -54.867094 (dE=-0.237E+01)
 bond charge predicted
       N       E                     dE             d eps       ncg     rms          rms(c)
DAV:   1    -0.547610036066E+02   -0.28884E+00   -0.31859E+01    36   0.429E+01    0.160E+00
RMM:   2    -0.548311314293E+02   -0.70128E-01   -0.96203E-01    37   0.672E+00    0.848E-01
RMM:   3    -0.548173890031E+02    0.13742E-01   -0.33666E-02    36   0.116E+00    0.430E-01
RMM:   4    -0.548166444437E+02    0.74456E-03   -0.20162E-02    36   0.800E-01    0.118E-01
RMM:   5    -0.548167521476E+02   -0.10770E-03   -0.19440E-03    36   0.215E-01    0.407E-02
RMM:   6    -0.548168462223E+02   -0.94075E-04   -0.29362E-04    40   0.834E-02    0.268E-02
RMM:   7    -0.548171377336E+02   -0.29151E-03   -0.33555E-04    36   0.862E-02    0.238E-02
RMM:   8    -0.548172983640E+02   -0.16063E-03   -0.50843E-05    36   0.325E-02    0.121E-02
RMM:   9    -0.548174280440E+02   -0.12968E-03   -0.71995E-05    37   0.367E-02    0.735E-03
RMM:  10    -0.548177162250E+02   -0.28818E-03   -0.34055E-05    35   0.247E-02    0.553E-03
RMM:  11    -0.548178224783E+02   -0.10625E-03   -0.16212E-05    36   0.160E-02    0.264E-03
RMM:  12    -0.548179111668E+02   -0.88688E-04   -0.84165E-06    32   0.114E-02    0.218E-03
RMM:  13    -0.548173720122E+02    0.53915E-03   -0.29615E-06    27   0.629E-03    0.824E-04
RMM:  14    -0.548174036716E+02   -0.31659E-04   -0.15267E-06    25   0.542E-03    0.923E-04
RMM:  15    -0.548174137949E+02   -0.10123E-04   -0.47262E-07    23   0.312E-03    0.300E-04
RMM:  16    -0.548174217368E+02   -0.79419E-05   -0.30244E-07    20   0.229E-03    0.241E-04
RMM:  17    -0.548174244788E+02   -0.27420E-05   -0.91220E-08    16   0.152E-03    0.174E-04
RMM:  18    -0.548174271710E+02   -0.26922E-05   -0.69333E-08    17   0.157E-03    0.256E-04
RMM:  19    -0.548174274995E+02   -0.32847E-06   -0.12570E-08    13   0.112E-03
   5 F= -.54881041E+02 E0= -.54881234E+02  d E =-.238246E+01
 curvature:  -0.20 expect dE=-0.623E+00 dE for cont linesearch -0.294E-02
 trial: gam= 0.18357 g(F)=  0.313E+01 g(S)=  0.000E+00 ort = 0.464E+00 (trialstep = 0.869E+00)
 search vector abs. value=  0.379E+01
 bond charge predicted
       N       E                     dE             d eps       ncg     rms          rms(c)
DAV:   1    -0.484344988725E+02    0.63829E+01   -0.53480E+02    36   0.179E+02    0.834E+00
RMM:   2    -0.500941186120E+02   -0.16596E+01   -0.22426E+01    36   0.331E+01    0.421E+00
RMM:   3    -0.497670396264E+02    0.32708E+00   -0.11610E+00    37   0.602E+00    0.228E+00
RMM:   4    -0.496574035779E+02    0.10964E+00   -0.42029E-01    36   0.369E+00    0.619E-01
RMM:   5    -0.496513132127E+02    0.60904E-02   -0.25281E-02    36   0.986E-01    0.297E-01
RMM:   6    -0.496478450242E+02    0.34682E-02   -0.22475E-02    36   0.655E-01    0.116E-01
RMM:   7    -0.496489995026E+02   -0.11545E-02   -0.31713E-03    37   0.252E-01    0.736E-02
RMM:   8    -0.496519702021E+02   -0.29707E-02   -0.12622E-03    36   0.190E-01    0.420E-02
RMM:   9    -0.496534531119E+02   -0.14829E-02   -0.81259E-04    37   0.127E-01    0.281E-02
RMM:  10    -0.496565068077E+02   -0.30537E-02   -0.58297E-04    36   0.101E-01    0.117E-02
RMM:  11    -0.496571572101E+02   -0.65040E-03   -0.14135E-04    37   0.433E-02    0.819E-03
RMM:  12    -0.496571534060E+02    0.38041E-05   -0.67660E-05    37   0.292E-02    0.392E-03
RMM:  13    -0.496580174091E+02   -0.86400E-03   -0.18984E-05    33   0.147E-02    0.253E-03
RMM:  14    -0.496581577348E+02   -0.14033E-03   -0.51302E-06    30   0.856E-03    0.188E-03
RMM:  15    -0.496582475348E+02   -0.89800E-04   -0.36626E-06    28   0.768E-03    0.115E-03
RMM:  16    -0.496582750494E+02   -0.27515E-04   -0.91545E-07    25   0.429E-03    0.519E-04
RMM:  17    -0.496583010348E+02   -0.25985E-04   -0.80827E-07    22   0.313E-03    0.308E-04
RMM:  18    -0.496583070789E+02   -0.60441E-05   -0.12581E-07    16   0.177E-03    0.154E-04
RMM:  19    -0.496583113882E+02   -0.43093E-05   -0.14040E-07    19   0.180E-03    0.130E-04
RMM:  20    -0.496583121916E+02   -0.80347E-06   -0.32121E-08    13   0.114E-03
   6 F= -.49722347E+02 E0= -.49722347E+02  d E =0.515869E+01
 trial-energy change:    5.158694  1 .order    8.421955   -2.798387   19.642297
 step:   0.1084(harm=  0.1084)  dis= 0.02537  next Energy=   -55.055522 (dE=-0.174E+00)
 bond charge predicted
       N       E                     dE             d eps       ncg     rms          rms(c)
DAV:   1    -0.550984296771E+02   -0.54401E+01   -0.40953E+02    36   0.152E+02    0.701E+00
RMM:   2    -0.552817428818E+02   -0.18331E+00   -0.11081E+01    36   0.226E+01    0.344E+00
RMM:   3    -0.551311289544E+02    0.15061E+00   -0.79534E-01    37   0.507E+00    0.189E+00
RMM:   4    -0.550964914085E+02    0.34638E-01   -0.16572E-01    36   0.244E+00    0.619E-01
RMM:   5    -0.550954572427E+02    0.10342E-02   -0.44037E-02    36   0.121E+00    0.321E-01
RMM:   6    -0.550933872495E+02    0.20700E-02   -0.48621E-03    36   0.366E-01    0.129E-01
RMM:   7    -0.550953243980E+02   -0.19371E-02   -0.62888E-03    36   0.350E-01    0.153E-01
RMM:   8    -0.550968285082E+02   -0.15041E-02   -0.23504E-03    36   0.278E-01    0.389E-02
RMM:   9    -0.550987438477E+02   -0.19153E-02   -0.99000E-04    36   0.154E-01    0.307E-02
RMM:  10    -0.550993920098E+02   -0.64816E-03   -0.26266E-04    37   0.609E-02    0.132E-02
RMM:  11    -0.551004006173E+02   -0.10086E-02   -0.21849E-04    36   0.582E-02    0.873E-03
RMM:  12    -0.551013255619E+02   -0.92494E-03   -0.64481E-05    37   0.347E-02    0.122E-02
RMM:  13    -0.551015744514E+02   -0.24889E-03   -0.39940E-05    37   0.258E-02    0.297E-03
RMM:  14    -0.551011071002E+02    0.46735E-03   -0.35276E-06    28   0.775E-03    0.232E-03
RMM:  15    -0.551011963969E+02   -0.89297E-04   -0.35645E-06    28   0.759E-03    0.982E-04
RMM:  16    -0.551018301226E+02   -0.63373E-03   -0.14221E-06    25   0.464E-03    0.477E-04
RMM:  17    -0.551018372183E+02   -0.70957E-05   -0.21552E-07    20   0.210E-03    0.381E-04
RMM:  18    -0.551018534037E+02   -0.16185E-04   -0.41905E-07    23   0.275E-03    0.432E-04
RMM:  19    -0.551018535300E+02   -0.12636E-06   -0.41464E-08    13   0.135E-03
   7 F= -.55165393E+02 E0= -.55165393E+02  d E =-.284352E+00
 curvature:  -0.06 expect dE=-0.108E+00 dE for cont linesearch -0.652E-01
 ZBRENT: interpolating
 opt :   0.1694  next Energy=   -55.225391 (dE=-0.344E+00)
 bond charge predicted
       N       E                     dE             d eps       ncg     rms          rms(c)
DAV:   1    -0.551921044212E+02   -0.90251E-01   -0.25639E+00    38   0.124E+01    0.475E-01
RMM:   2    -0.551975797488E+02   -0.54753E-02   -0.76144E-02    37   0.187E+00    0.241E-01
RMM:   3    -0.551966090547E+02    0.97069E-03   -0.26223E-03    36   0.316E-01    0.123E-01
RMM:   4    -0.551960672122E+02    0.54184E-03   -0.14692E-03    36   0.218E-01    0.366E-02
RMM:   5    -0.551966014829E+02   -0.53427E-03   -0.11331E-04    36   0.541E-02    0.137E-02
RMM:   6    -0.551966068781E+02   -0.53952E-05   -0.41737E-05    36   0.286E-02    0.705E-03
RMM:   7    -0.551966315700E+02   -0.24692E-04   -0.57474E-06    33   0.140E-02    0.373E-03
RMM:   8    -0.551966787480E+02   -0.47178E-04   -0.83822E-06    35   0.134E-02    0.441E-03
RMM:   9    -0.551966924782E+02   -0.13730E-04   -0.34334E-06    27   0.838E-03    0.172E-03
RMM:  10    -0.551967463883E+02   -0.53910E-04   -0.63314E-06    33   0.101E-02    0.174E-03
RMM:  11    -0.551967561480E+02   -0.97597E-05   -0.46081E-07    24   0.358E-03    0.133E-03
RMM:  12    -0.551967809874E+02   -0.24839E-04   -0.27390E-06    26   0.645E-03    0.963E-04
RMM:  13    -0.551967845572E+02   -0.35698E-05   -0.33751E-07    23   0.272E-03    0.307E-04
RMM:  14    -0.551962118807E+02    0.57268E-03   -0.33132E-07    21   0.228E-03    0.254E-04
RMM:  15    -0.551962135093E+02   -0.16286E-05   -0.11867E-07    15   0.144E-03    0.110E-04
RMM:  16    -0.551962162040E+02   -0.26947E-05   -0.19878E-07    21   0.192E-03    0.392E-04
RMM:  17    -0.551962163564E+02   -0.15241E-06   -0.39044E-08    13   0.116E-03
   8 F= -.55259728E+02 E0= -.55259922E+02  d E =-.378688E+00
 curvature:  -0.06 expect dE=-0.838E-01 dE for cont linesearch -0.197E-01
 ZBRENT: interpolating
 opt :   0.2471  next Energy=   -55.305605 (dE=-0.425E+00)
 bond charge predicted
       N       E                     dE             d eps       ncg     rms          rms(c)
DAV:   1    -0.552307499539E+02   -0.34534E-01   -0.42147E+00    36   0.157E+01    0.635E-01
RMM:   2    -0.552383165668E+02   -0.75666E-02   -0.12467E-01    37   0.239E+00    0.321E-01
RMM:   3    -0.552365327391E+02    0.17838E-02   -0.46240E-03    36   0.416E-01    0.158E-01
RMM:   4    -0.552365305484E+02    0.21907E-05   -0.22960E-03    36   0.275E-01    0.484E-02
RMM:   5    -0.552370333302E+02   -0.50278E-03   -0.30649E-04    36   0.854E-02    0.151E-02
RMM:   6    -0.552364620061E+02    0.57132E-03   -0.31330E-05    37   0.272E-02    0.826E-03
RMM:   7    -0.552364967533E+02   -0.34747E-04   -0.55151E-06    33   0.131E-02    0.531E-03
RMM:   8    -0.552365756858E+02   -0.78932E-04   -0.13490E-05    36   0.171E-02    0.448E-03
RMM:   9    -0.552366133076E+02   -0.37622E-04   -0.73418E-06    35   0.112E-02    0.241E-03
RMM:  10    -0.552372653685E+02   -0.65206E-03   -0.64614E-06    32   0.106E-02    0.171E-03
RMM:  11    -0.552372873700E+02   -0.22002E-04   -0.14855E-06    25   0.483E-03    0.635E-04
RMM:  12    -0.552373141641E+02   -0.26794E-04   -0.22688E-06    25   0.478E-03    0.462E-04
RMM:  13    -0.552373265124E+02   -0.12348E-04   -0.48043E-07    21   0.272E-03    0.291E-04
RMM:  14    -0.552373316233E+02   -0.51109E-05   -0.28204E-07    20   0.224E-03    0.158E-04
RMM:  15    -0.552373351742E+02   -0.35508E-05   -0.16987E-07    17   0.179E-03    0.192E-04
RMM:  16    -0.552373360459E+02   -0.87173E-06   -0.50489E-08    13   0.135E-03
   9 F= -.55300829E+02 E0= -.55300829E+02  d E =-.419788E+00
 curvature:  -0.14 expect dE=-0.292E+00 dE for cont linesearch -0.515E-03
 trial: gam= 0.51811 g(F)=  0.213E+01 g(S)=  0.000E+00 ort =-0.119E+00 (trialstep = 0.745E+00)
 search vector abs. value=  0.303E+01
 bond charge predicted
       N       E                     dE             d eps       ncg     rms          rms(c)
DAV:   1    -0.549307991769E+02    0.30654E+00   -0.12273E+02    38   0.877E+01    0.306E+00
RMM:   2    -0.551144435634E+02   -0.18364E+00   -0.26793E+00    36   0.119E+01    0.192E+00
RMM:   3    -0.550830034232E+02    0.31440E-01   -0.12528E-01    37   0.218E+00    0.120E+00
RMM:   4    -0.550744821254E+02    0.85213E-02   -0.75021E-02    36   0.142E+00    0.277E-01
RMM:   5    -0.550751678679E+02   -0.68574E-03   -0.41911E-03    37   0.370E-01    0.133E-01
RMM:   6    -0.550756640495E+02   -0.49618E-03   -0.44610E-03    36   0.303E-01    0.616E-02
RMM:   7    -0.550757639379E+02   -0.99888E-04   -0.21179E-04    37   0.761E-02    0.297E-02
RMM:   8    -0.550765801522E+02   -0.81621E-03   -0.73888E-04    36   0.123E-01    0.379E-02
RMM:   9    -0.550765803336E+02   -0.18146E-06   -0.65042E-05    37   0.389E-02    0.188E-02
RMM:  10    -0.550772581666E+02   -0.67783E-03   -0.55790E-04    36   0.105E-01    0.311E-02
RMM:  11    -0.550772601218E+02   -0.19552E-05   -0.29163E-05    36   0.275E-02    0.191E-02
RMM:  12    -0.550774825309E+02   -0.22241E-03   -0.25526E-04    36   0.705E-02    0.152E-02
RMM:  13    -0.550775206942E+02   -0.38163E-04   -0.96058E-06    36   0.151E-02    0.108E-02
RMM:  14    -0.550775779734E+02   -0.57279E-04   -0.57162E-05    36   0.333E-02    0.622E-03
RMM:  15    -0.550775935077E+02   -0.15534E-04   -0.22723E-06    25   0.802E-03    0.277E-03
RMM:  16    -0.550776206199E+02   -0.27112E-04   -0.64175E-06    34   0.114E-02    0.193E-03
RMM:  17    -0.550770451564E+02    0.57546E-03   -0.10022E-06    24   0.522E-03    0.589E-04
RMM:  18    -0.550770530507E+02   -0.78943E-05   -0.66610E-07    24   0.442E-03    0.147E-03
RMM:  19    -0.550770556227E+02   -0.25721E-05   -0.25009E-07    23   0.260E-03    0.541E-04
RMM:  20    -0.550770570408E+02   -0.14180E-05   -0.30817E-07    24   0.278E-03    0.418E-04
RMM:  21    -0.550770582495E+02   -0.12087E-05   -0.17750E-08    13   0.122E-03    0.150E-04
RMM:  22    -0.550770587912E+02   -0.54178E-06    0.00000E+00    12   0.127E-03
  10 F= -.55139832E+02 E0= -.55140025E+02  d E =0.160997E+00
 trial-energy change:    0.160997  1 .order    0.278323   -1.541966    2.098612
 step:   0.3514(harm=  0.3155)  dis= 0.04569  next Energy=   -55.676846 (dE=-0.376E+00)
 bond charge predicted
       N       E                     dE             d eps       ncg     rms          rms(c)
DAV:   1    -0.555737293183E+02   -0.49667E+00   -0.35948E+01    36   0.482E+01    0.140E+00
RMM:   2    -0.556208424312E+02   -0.47113E-01   -0.73127E-01    36   0.617E+00    0.102E+00
RMM:   3    -0.556104966088E+02    0.10346E-01   -0.42889E-02    36   0.126E+00    0.525E-01
RMM:   4    -0.556105591931E+02   -0.62584E-04   -0.18474E-02    36   0.745E-01    0.117E-01
RMM:   5    -0.556103740291E+02    0.18516E-03   -0.10734E-03    37   0.175E-01    0.631E-02
RMM:   6    -0.556111533073E+02   -0.77928E-03   -0.95164E-04    36   0.137E-01    0.242E-02
RMM:   7    -0.556112254820E+02   -0.72175E-04   -0.76082E-05    36   0.435E-02    0.117E-02
RMM:   8    -0.556108828175E+02    0.34266E-03   -0.69596E-05    36   0.392E-02    0.943E-03
RMM:   9    -0.556114889774E+02   -0.60616E-03   -0.12627E-05    36   0.154E-02    0.429E-03
RMM:  10    -0.556117196534E+02   -0.23068E-03   -0.45969E-05    36   0.271E-02    0.695E-03
RMM:  11    -0.556117216800E+02   -0.20267E-05   -0.18581E-06    24   0.726E-03    0.431E-03
RMM:  12    -0.556118238495E+02   -0.10217E-03   -0.45076E-05    36   0.278E-02    0.848E-03
RMM:  13    -0.556118254020E+02   -0.15525E-05   -0.22909E-06    25   0.779E-03    0.498E-03
RMM:  14    -0.556118478969E+02   -0.22495E-04   -0.19072E-05    36   0.187E-02    0.385E-03
RMM:  15    -0.556118527286E+02   -0.48317E-05   -0.41743E-07    23   0.408E-03    0.301E-03
RMM:  16    -0.556118613084E+02   -0.85799E-05   -0.30103E-06    27   0.762E-03    0.430E-04
RMM:  17    -0.556118623580E+02   -0.10496E-05   -0.17129E-07    23   0.268E-03    0.214E-04
RMM:  18    -0.556118649152E+02   -0.25572E-05   -0.74396E-08    16   0.165E-03    0.447E-04
RMM:  19    -0.556118662994E+02   -0.13842E-05   -0.33820E-08    15   0.125E-03    0.201E-04
RMM:  20    -0.556118668686E+02   -0.56919E-06   -0.11584E-07    22   0.181E-03
  11 F= -.55674850E+02 E0= -.55674850E+02  d E =-.374021E+00
 curvature:  -0.23 expect dE=-0.120E+00 dE for cont linesearch -0.262E-07
 trial: gam= 0.21648 g(F)=  0.526E+00 g(S)=  0.000E+00 ort =-0.589E-03 (trialstep = 0.666E+00)
 search vector abs. value=  0.667E+00
 bond charge predicted
       N       E                     dE             d eps       ncg     rms          rms(c)
DAV:   1    -0.557561836919E+02   -0.14432E+00   -0.17159E+01    36   0.332E+01    0.110E+00
RMM:   2    -0.557781253680E+02   -0.21942E-01   -0.37825E-01    36   0.431E+00    0.707E-01
RMM:   3    -0.557744529997E+02    0.36724E-02   -0.20008E-02    37   0.885E-01    0.393E-01
RMM:   4    -0.557756583673E+02   -0.12054E-02   -0.76844E-03    36   0.502E-01    0.771E-02
RMM:   5    -0.557755735836E+02    0.84784E-04   -0.40234E-04    37   0.110E-01    0.378E-02
RMM:   6    -0.557756314424E+02   -0.57859E-04   -0.42786E-04    36   0.922E-02    0.155E-02
RMM:   7    -0.557756781493E+02   -0.46707E-04   -0.23457E-05    37   0.254E-02    0.854E-03
RMM:   8    -0.557758117539E+02   -0.13360E-03   -0.39682E-05    36   0.293E-02    0.831E-03
RMM:   9    -0.557758252514E+02   -0.13497E-04   -0.95307E-06    35   0.138E-02    0.321E-03
RMM:  10    -0.557759420939E+02   -0.11684E-03   -0.19806E-05    36   0.179E-02    0.425E-03
RMM:  11    -0.557759451778E+02   -0.30840E-05   -0.10138E-06    24   0.534E-03    0.222E-03
RMM:  12    -0.557760024402E+02   -0.57262E-04   -0.12980E-05    35   0.148E-02    0.378E-03
RMM:  13    -0.557760044575E+02   -0.20173E-05   -0.66326E-07    24   0.416E-03    0.234E-03
RMM:  14    -0.557760206865E+02   -0.16229E-04   -0.84793E-06    36   0.126E-02    0.371E-03
RMM:  15    -0.557760226121E+02   -0.19255E-05   -0.25861E-07    24   0.289E-03    0.263E-03
RMM:  16    -0.557760258835E+02   -0.32714E-05   -0.19577E-06    24   0.685E-03    0.234E-04
RMM:  17    -0.557760270832E+02   -0.11997E-05   -0.29747E-07    23   0.338E-03    0.238E-04
RMM:  18    -0.557760281074E+02   -0.10242E-05   -0.11383E-07    22   0.190E-03    0.475E-04
RMM:  19    -0.557754493539E+02    0.57875E-03   -0.22406E-08    13   0.116E-03    0.428E-04
RMM:  20    -0.557754500334E+02   -0.67950E-06   -0.15025E-08    13   0.135E-03
  12 F= -.55838566E+02 E0= -.55838760E+02  d E =-.163717E+00
 trial-energy change:   -0.163717  1 .order   -0.157351   -0.350103    0.035400
 step:   0.6101(harm=  0.6050)  dis= 0.03144  next Energy=   -55.840053 (dE=-0.165E+00)
 bond charge predicted
       N       E                     dE             d eps       ncg     rms          rms(c)
DAV:   1    -0.557768002530E+02   -0.13509E-02   -0.12273E-01    38   0.281E+00    0.956E-02
RMM:   2    -0.557769423591E+02   -0.14211E-03   -0.28101E-03    36   0.371E-01    0.615E-02
RMM:   3    -0.557769203111E+02    0.22048E-04   -0.14819E-04    37   0.761E-02    0.343E-02
RMM:   4    -0.557769324341E+02   -0.12123E-04   -0.56061E-05    36   0.434E-02    0.691E-03
RMM:   5    -0.557769315595E+02    0.87465E-06   -0.30633E-06    26   0.102E-02
  13 F= -.55840027E+02 E0= -.55840220E+02  d E =-.165177E+00
 curvature:  -0.38 expect dE=-0.858E-01 dE for cont linesearch -0.355E-06
 trial: gam= 0.45526 g(F)=  0.225E+00 g(S)=  0.000E+00 ort = 0.788E-03 (trialstep = 0.655E+00)
 search vector abs. value=  0.364E+00
 bond charge predicted
       N       E                     dE             d eps       ncg     rms          rms(c)
DAV:   1    -0.557012160482E+02    0.75716E-01   -0.21728E+01    36   0.351E+01    0.138E+00
RMM:   2    -0.557420148278E+02   -0.40799E-01   -0.61137E-01    36   0.521E+00    0.675E-01
RMM:   3    -0.557359959734E+02    0.60189E-02   -0.30576E-02    37   0.933E-01    0.337E-01
RMM:   4    -0.557360136564E+02   -0.17683E-04   -0.80085E-03    36   0.521E-01    0.103E-01
RMM:   5    -0.557358251200E+02    0.18854E-03   -0.69057E-04    36   0.148E-01    0.400E-02
RMM:   6    -0.557358419100E+02   -0.16790E-04   -0.30339E-04    36   0.802E-02    0.196E-02
RMM:   7    -0.557353629397E+02    0.47897E-03   -0.63700E-05    37   0.366E-02    0.128E-02
RMM:   8    -0.557355895544E+02   -0.22661E-03   -0.40730E-05    36   0.321E-02    0.578E-03
RMM:   9    -0.557358306893E+02   -0.24113E-03   -0.35764E-05    35   0.215E-02    0.420E-03
RMM:  10    -0.557359455282E+02   -0.11484E-03   -0.11201E-05    34   0.125E-02    0.222E-03
RMM:  11    -0.557360616814E+02   -0.11615E-03   -0.13788E-05    34   0.134E-02    0.250E-03
RMM:  12    -0.557360773775E+02   -0.15696E-04   -0.13564E-06    25   0.527E-03    0.999E-04
RMM:  13    -0.557361172430E+02   -0.39866E-04   -0.25805E-06    26   0.657E-03    0.106E-03
RMM:  14    -0.557367050451E+02   -0.58780E-03   -0.66399E-07    24   0.322E-03    0.696E-04
RMM:  15    -0.557367150336E+02   -0.99885E-05   -0.50530E-07    24   0.322E-03    0.558E-04
RMM:  16    -0.557361379188E+02    0.57711E-03   -0.15552E-07    16   0.178E-03    0.362E-04
RMM:  17    -0.557361405247E+02   -0.26060E-05   -0.18511E-07    23   0.206E-03    0.371E-04
RMM:  18    -0.557361413237E+02   -0.79895E-06   -0.24585E-08    13   0.979E-04
  14 F= -.55799574E+02 E0= -.55799767E+02  d E =0.404530E-01
 trial-energy change:    0.040453  1 .order    0.052266   -0.147513    0.252045
 step:   0.2700(harm=  0.2418)  dis= 0.01829  next Energy=   -55.871254 (dE=-0.312E-01)
 bond charge predicted
       N       E                     dE             d eps       ncg     rms          rms(c)
DAV:   1    -0.557975431677E+02   -0.61403E-01   -0.75066E+00    36   0.208E+01    0.792E-01
RMM:   2    -0.558091418880E+02   -0.11599E-01   -0.20587E-01    36   0.301E+00    0.409E-01
RMM:   3    -0.558074352465E+02    0.17066E-02   -0.10558E-02    37   0.558E-01    0.216E-01
RMM:   4    -0.558075469967E+02   -0.11175E-03   -0.26740E-03    36   0.305E-01    0.670E-02
RMM:   5    -0.558075322136E+02    0.14783E-04   -0.45615E-04    36   0.113E-01    0.292E-02
RMM:   6    -0.558075373132E+02   -0.50996E-05   -0.53120E-05    37   0.383E-02    0.142E-02
RMM:   7    -0.558075879593E+02   -0.50646E-04   -0.38376E-05    37   0.261E-02    0.937E-03
RMM:   8    -0.558076696877E+02   -0.81728E-04   -0.16004E-05    34   0.203E-02    0.352E-03
RMM:   9    -0.558083565456E+02   -0.68686E-03   -0.14983E-05    33   0.145E-02    0.248E-03
RMM:  10    -0.558084191604E+02   -0.62615E-04   -0.11118E-05    33   0.105E-02    0.143E-03
RMM:  11    -0.558084561442E+02   -0.36984E-04   -0.40063E-06    28   0.716E-03    0.103E-03
RMM:  12    -0.558084761102E+02   -0.19966E-04   -0.14059E-06    24   0.425E-03    0.527E-04
RMM:  13    -0.558084859702E+02   -0.98599E-05   -0.56222E-07    23   0.311E-03    0.452E-04
RMM:  14    -0.558079129063E+02    0.57306E-03   -0.42042E-07    18   0.235E-03    0.202E-04
RMM:  15    -0.558079150275E+02   -0.21212E-05   -0.16983E-07    17   0.174E-03    0.873E-05
RMM:  16    -0.558079170540E+02   -0.20266E-05   -0.10183E-07    16   0.153E-03    0.111E-04
RMM:  17    -0.558079174609E+02   -0.40691E-06   -0.33543E-08    13   0.116E-03
  15 F= -.55871144E+02 E0= -.55871337E+02  d E =-.311171E-01
 curvature:  -0.19 expect dE=-0.182E-01 dE for cont linesearch -0.701E-07
 trial: gam= 0.42649 g(F)=  0.936E-01 g(S)=  0.000E+00 ort =-0.362E-03 (trialstep = 0.578E+00)
 search vector abs. value=  0.159E+00
 bond charge predicted
       N       E                     dE             d eps       ncg     rms          rms(c)
DAV:   1    -0.558238330140E+02   -0.15916E-01   -0.34574E+00    36   0.146E+01    0.390E-01
RMM:   2    -0.558278631032E+02   -0.40301E-02   -0.61853E-02    36   0.180E+00    0.261E-01
RMM:   3    -0.558274009622E+02    0.46214E-03   -0.37340E-03    37   0.358E-01    0.118E-01
RMM:   4    -0.558274536500E+02   -0.52688E-04   -0.10858E-03    36   0.178E-01    0.259E-02
RMM:   5    -0.558274596025E+02   -0.59525E-05   -0.55905E-05    36   0.464E-02    0.124E-02
RMM:   6    -0.558274869512E+02   -0.27349E-04   -0.31196E-05    36   0.273E-02    0.628E-03
RMM:   7    -0.558275169665E+02   -0.30015E-04   -0.91331E-06    36   0.134E-02    0.334E-03
RMM:   8    -0.558275463415E+02   -0.29375E-04   -0.27664E-06    27   0.758E-03    0.189E-03
RMM:   9    -0.558275765013E+02   -0.30160E-04   -0.35036E-06    28   0.791E-03    0.151E-03
RMM:  10    -0.558276033480E+02   -0.26847E-04   -0.33420E-06    28   0.603E-03    0.751E-04
RMM:  11    -0.558276141622E+02   -0.10814E-04   -0.77201E-07    24   0.387E-03    0.540E-04
RMM:  12    -0.558276226063E+02   -0.84442E-05   -0.89188E-07    22   0.311E-03    0.334E-04
RMM:  13    -0.558276263151E+02   -0.37088E-05   -0.25149E-07    21   0.228E-03    0.163E-04
RMM:  14    -0.558276283710E+02   -0.20559E-05   -0.14348E-07    16   0.174E-03    0.129E-04
RMM:  15    -0.558276293341E+02   -0.96315E-06   -0.69234E-08    15   0.139E-03
  16 F= -.55891014E+02 E0= -.55891014E+02  d E =-.198699E-01
 trial-energy change:   -0.019870  1 .order   -0.019669   -0.053996    0.014659
 step:   0.4563(harm=  0.4546)  dis= 0.01198  next Energy=   -55.892556 (dE=-0.214E-01)
 bond charge predicted
       N       E                     dE             d eps       ncg     rms          rms(c)
DAV:   1    -0.558291033882E+02   -0.14750E-02   -0.15323E-01    40   0.307E+00    0.823E-02
RMM:   2    -0.558292757213E+02   -0.17233E-03   -0.27289E-03    36   0.377E-01    0.549E-02
RMM:   3    -0.558292586323E+02    0.17089E-04   -0.16288E-04    37   0.743E-02    0.258E-02
RMM:   4    -0.558292614310E+02   -0.27987E-05   -0.53004E-05    36   0.388E-02    0.569E-03
RMM:   5    -0.558292608609E+02    0.57010E-06   -0.19986E-06    24   0.972E-03
  17 F= -.55892613E+02 E0= -.55892613E+02  d E =-.214684E-01
 curvature:  -0.39 expect dE=-0.212E-01 dE for cont linesearch -0.220E-05
 trial: gam= 0.60813 g(F)=  0.546E-01 g(S)=  0.000E+00 ort =-0.952E-03 (trialstep = 0.554E+00)
 search vector abs. value=  0.112E+00
 bond charge predicted
       N       E                     dE             d eps       ncg     rms          rms(c)
DAV:   1    -0.558476602424E+02   -0.18399E-01   -0.17684E+00    36   0.103E+01    0.337E-01
RMM:   2    -0.558500820727E+02   -0.24218E-02   -0.36400E-02    36   0.131E+00    0.199E-01
RMM:   3    -0.558500739829E+02    0.80898E-05   -0.17070E-03    37   0.252E-01    0.105E-01
RMM:   4    -0.558496532278E+02    0.42076E-03   -0.55407E-04    36   0.133E-01    0.207E-02
RMM:   5    -0.558496500642E+02    0.31635E-05   -0.25147E-05    37   0.301E-02    0.995E-03
RMM:   6    -0.558496553762E+02   -0.53119E-05   -0.24113E-05    35   0.224E-02    0.393E-03
RMM:   7    -0.558496593099E+02   -0.39337E-05   -0.95954E-07    24   0.620E-03    0.201E-03
RMM:   8    -0.558496721017E+02   -0.12792E-04   -0.52545E-06    33   0.101E-02    0.297E-03
RMM:   9    -0.558496720319E+02    0.69831E-07   -0.26131E-07    23   0.294E-03
  18 F= -.55913447E+02 E0= -.55913640E+02  d E =-.208342E-01
 trial-energy change:   -0.020834  1 .order   -0.021431   -0.029915   -0.012948
 step:   0.9761(harm=  0.9761)  dis= 0.02302  next Energy=   -55.918984 (dE=-0.264E-01)
 bond charge predicted
       N       E                     dE             d eps       ncg     rms          rms(c)
DAV:   1    -0.558528395941E+02   -0.31675E-02   -0.10308E+00    36   0.788E+00    0.258E-01
RMM:   2    -0.558542248642E+02   -0.13853E-02   -0.21104E-02    36   0.997E-01    0.152E-01
RMM:   3    -0.558542039140E+02    0.20950E-04   -0.99011E-04    37   0.193E-01    0.800E-02
RMM:   4    -0.558542971073E+02   -0.93193E-04   -0.32800E-04    36   0.102E-01    0.160E-02
RMM:   5    -0.558542970600E+02    0.47265E-07   -0.14430E-05    37   0.227E-02    0.780E-03
RMM:   6    -0.558543043554E+02   -0.72953E-05   -0.15561E-05    35   0.179E-02    0.324E-03
RMM:   7    -0.558543079908E+02   -0.36355E-05   -0.68267E-07    24   0.506E-03    0.161E-03
RMM:   8    -0.558543210675E+02   -0.13077E-04   -0.37833E-06    30   0.851E-03    0.246E-03
RMM:   9    -0.558543210679E+02   -0.42189E-09   -0.24314E-07    23   0.285E-03
  19 F= -.55918411E+02 E0= -.55918604E+02  d E =-.257983E-01
 curvature:  -1.02 expect dE=-0.829E-01 dE for cont linesearch -0.363E-07
 trial: gam= 1.44596 g(F)=  0.816E-01 g(S)=  0.000E+00 ort = 0.634E-04 (trialstep = 0.226E+00)
 search vector abs. value=  0.317E+00
 bond charge predicted
       N       E                     dE             d eps       ncg     rms          rms(c)
DAV:   1    -0.558670412586E+02   -0.12720E-01   -0.70248E-01    38   0.664E+00    0.225E-01
RMM:   2    -0.558679628411E+02   -0.92158E-03   -0.13222E-02    36   0.814E-01    0.149E-01
RMM:   3    -0.558673558741E+02    0.60697E-03   -0.97230E-04    36   0.188E-01    0.593E-02
RMM:   4    -0.558679323120E+02   -0.57644E-03   -0.11740E-04    36   0.646E-02    0.154E-02
RMM:   5    -0.558679295946E+02    0.27174E-05   -0.21686E-05    37   0.219E-02    0.606E-03
RMM:   6    -0.558679354953E+02   -0.59008E-05   -0.81073E-06    34   0.132E-02    0.256E-03
RMM:   7    -0.558679439443E+02   -0.84489E-05   -0.12333E-06    25   0.560E-03    0.181E-03
RMM:   8    -0.558679546558E+02   -0.10712E-04   -0.10512E-06    24   0.506E-03    0.816E-04
RMM:   9    -0.558679593830E+02   -0.47272E-05   -0.36987E-07    24   0.261E-03    0.498E-04
RMM:  10    -0.558679725078E+02   -0.13125E-04   -0.16841E-06    24   0.411E-03    0.419E-04
RMM:  11    -0.558679739829E+02   -0.14751E-05   -0.23238E-07    19   0.198E-03    0.325E-04
RMM:  12    -0.558679779884E+02   -0.40055E-05   -0.34325E-07    22   0.234E-03    0.250E-04
RMM:  13    -0.558679790378E+02   -0.10494E-05   -0.12531E-07    15   0.145E-03    0.146E-04
RMM:  14    -0.558679806843E+02   -0.16465E-05   -0.13920E-07    16   0.161E-03    0.127E-04
RMM:  15    -0.558679810401E+02   -0.35588E-06   -0.49546E-08    13   0.126E-03
  20 F= -.55932370E+02 E0= -.55932370E+02  d E =-.139594E-01
 trial-energy change:   -0.013959  1 .order   -0.013327   -0.018502   -0.008152
 step:   0.3413(harm=  0.4048)  dis= 0.01310  next Energy=   -55.934521 (dE=-0.161E-01)
 bond charge predicted
       N       E                     dE             d eps       ncg     rms          rms(c)
DAV:   1    -0.558703738498E+02   -0.23932E-02   -0.18100E-01    38   0.337E+00    0.115E-01
RMM:   2    -0.558706038300E+02   -0.22998E-03   -0.34111E-03    36   0.414E-01    0.763E-02
RMM:   3    -0.558700153353E+02    0.58849E-03   -0.25702E-04    36   0.967E-02    0.299E-02
RMM:   4    -0.558700116728E+02    0.36625E-05   -0.31497E-05    37   0.325E-02    0.793E-03
RMM:   5    -0.558700098412E+02    0.18315E-05   -0.45820E-06    28   0.111E-02    0.308E-03
RMM:   6    -0.558705908783E+02   -0.58104E-03   -0.24822E-06    27   0.776E-03    0.124E-03
RMM:   7    -0.558705941868E+02   -0.33085E-05   -0.51030E-07    24   0.397E-03    0.933E-04
RMM:   8    -0.558705975736E+02   -0.33869E-05   -0.34499E-07    24   0.289E-03    0.384E-04
RMM:   9    -0.558705997592E+02   -0.21856E-05   -0.14241E-07    18   0.181E-03    0.241E-04
RMM:  10    -0.558706044885E+02   -0.47293E-05   -0.49025E-07    22   0.253E-03    0.202E-04
RMM:  11    -0.558706051566E+02   -0.66809E-06   -0.12358E-07    15   0.144E-03
  21 F= -.55935145E+02 E0= -.55935145E+02  d E =-.167346E-01
 curvature:  -0.69 expect dE=-0.421E-01 dE for cont linesearch -0.324E-03
 trial: gam= 0.61968 g(F)=  0.615E-01 g(S)=  0.000E+00 ort = 0.122E-01 (trialstep = 0.249E+00)
 search vector abs. value=  0.198E+00
 bond charge predicted
       N       E                     dE             d eps       ncg     rms          rms(c)
DAV:   1    -0.558828237923E+02   -0.12219E-01   -0.73768E-01    36   0.667E+00    0.238E-01
RMM:   2    -0.558833212690E+02   -0.49748E-03   -0.17747E-02    36   0.863E-01    0.131E-01
RMM:   3    -0.558838692723E+02   -0.54800E-03   -0.87217E-04    37   0.164E-01    0.779E-02
RMM:   4    -0.558839449729E+02   -0.75701E-04   -0.18344E-04    36   0.799E-02    0.207E-02
RMM:   5    -0.558839437622E+02    0.12107E-05   -0.27797E-05    36   0.303E-02    0.663E-03
RMM:   6    -0.558839450901E+02   -0.13279E-05   -0.24870E-06    25   0.921E-03    0.277E-03
RMM:   7    -0.558839498078E+02   -0.47177E-05   -0.23430E-06    26   0.784E-03    0.203E-03
RMM:   8    -0.558839552959E+02   -0.54881E-05   -0.90097E-07    24   0.543E-03    0.101E-03
RMM:   9    -0.558839627696E+02   -0.74737E-05   -0.91576E-07    25   0.366E-03    0.584E-04
RMM:  10    -0.558839663666E+02   -0.35970E-05   -0.33680E-07    19   0.233E-03    0.289E-04
RMM:  11    -0.558839704344E+02   -0.40678E-05   -0.55808E-07    21   0.274E-03    0.296E-04
RMM:  12    -0.558839716752E+02   -0.12408E-05   -0.20322E-07    17   0.185E-03    0.170E-04
RMM:  13    -0.558839734228E+02   -0.17477E-05   -0.20110E-07    15   0.184E-03    0.132E-04
RMM:  14    -0.558839736546E+02   -0.23174E-06   -0.78079E-08    14   0.152E-03
  22 F= -.55948672E+02 E0= -.55948672E+02  d E =-.135263E-01
 trial-energy change:   -0.013526  1 .order   -0.013528   -0.017227   -0.009829
 step:   0.5807(harm=  0.5807)  dis= 0.01770  next Energy=   -55.955203 (dE=-0.201E-01)
 bond charge predicted
       N       E                     dE             d eps       ncg     rms          rms(c)
DAV:   1    -0.558883085075E+02   -0.43351E-02   -0.13008E+00    36   0.885E+00    0.315E-01
RMM:   2    -0.558896433503E+02   -0.13348E-02   -0.31433E-02    36   0.115E+00    0.175E-01
RMM:   3    -0.558895917539E+02    0.51596E-04   -0.15634E-03    37   0.219E-01    0.104E-01
RMM:   4    -0.558897287118E+02   -0.13696E-03   -0.32394E-04    36   0.106E-01    0.278E-02
RMM:   5    -0.558897270668E+02    0.16450E-05   -0.49160E-05    36   0.403E-02    0.882E-03
RMM:   6    -0.558897296023E+02   -0.25356E-05   -0.53976E-06    33   0.126E-02    0.345E-03
RMM:   7    -0.558897369181E+02   -0.73158E-05   -0.23636E-06    26   0.790E-03    0.240E-03
RMM:   8    -0.558897456266E+02   -0.87085E-05   -0.12776E-06    25   0.607E-03    0.119E-03
RMM:   9    -0.558897589197E+02   -0.13293E-04   -0.17963E-06    26   0.496E-03    0.838E-04
RMM:  10    -0.558897636792E+02   -0.47595E-05   -0.49029E-07    22   0.272E-03    0.514E-04
RMM:  11    -0.558897694764E+02   -0.57972E-05   -0.88761E-07    25   0.308E-03    0.305E-04
RMM:  12    -0.558897714727E+02   -0.19963E-05   -0.19251E-07    17   0.178E-03    0.174E-04
RMM:  13    -0.558897736883E+02   -0.22156E-05   -0.22617E-07    17   0.190E-03    0.125E-04
RMM:  14    -0.558897740968E+02   -0.40846E-06   -0.78257E-08    14   0.143E-03
  23 F= -.55954675E+02 E0= -.55954869E+02  d E =-.195299E-01
 curvature:  -0.83 expect dE=-0.527E-01 dE for cont linesearch -0.692E-06
 trial: gam= 1.28576 g(F)=  0.632E-01 g(S)=  0.000E+00 ort = 0.406E-03 (trialstep = 0.160E+00)
 search vector abs. value=  0.392E+00
 bond charge predicted
       N       E                     dE             d eps       ncg     rms          rms(c)
DAV:   1    -0.558984622587E+02   -0.86886E-02   -0.50451E-01    38   0.560E+00    0.182E-01
RMM:   2    -0.558989260696E+02   -0.46381E-03   -0.85088E-03    36   0.598E-01    0.114E-01
RMM:   3    -0.558989036249E+02    0.22445E-04   -0.46942E-04    37   0.121E-01    0.659E-02
RMM:   4    -0.558989786671E+02   -0.75042E-04   -0.14831E-04    36   0.682E-02    0.177E-02
RMM:   5    -0.558989735482E+02    0.51189E-05   -0.19529E-05    34   0.247E-02    0.433E-03
RMM:   6    -0.558989738960E+02   -0.34785E-06   -0.42066E-06    31   0.102E-02
  24 F= -.55964060E+02 E0= -.55964253E+02  d E =-.938460E-02
 ZBRENT: can't locate minimum, use default step
 trial-energy change:   -0.009385  1 .order   -0.009386   -0.010171   -0.008601
 step:   0.6387(harm=  1.0347)  dis= 0.02602  next Energy=   -55.987629 (dE=-0.330E-01)
 bond charge predicted
       N       E                     dE             d eps       ncg     rms          rms(c)
DAV:   1    -0.559124991730E+02   -0.13526E-01   -0.45374E+00    36   0.168E+01    0.548E-01
RMM:   2    -0.559175156268E+02   -0.50165E-02   -0.77707E-02    36   0.181E+00    0.343E-01
RMM:   3    -0.559166389470E+02    0.87668E-03   -0.41309E-03    37   0.362E-01    0.200E-01
RMM:   4    -0.559172659213E+02   -0.62697E-03   -0.14477E-03    36   0.213E-01    0.551E-02
RMM:   5    -0.559172181703E+02    0.47751E-04   -0.18902E-04    36   0.769E-02    0.130E-02
RMM:   6    -0.559172239045E+02   -0.57343E-05   -0.36575E-05    37   0.294E-02    0.396E-03
RMM:   7    -0.559172296165E+02   -0.57120E-05   -0.16577E-06    25   0.722E-03    0.260E-03
RMM:   8    -0.559172417583E+02   -0.12142E-04   -0.21453E-06    25   0.689E-03    0.113E-03
RMM:   9    -0.559172469350E+02   -0.51767E-05   -0.73402E-07    23   0.412E-03    0.743E-04
RMM:  10    -0.559172582469E+02   -0.11312E-04   -0.16467E-06    25   0.477E-03    0.116E-03
RMM:  11    -0.559172596370E+02   -0.13901E-05   -0.29729E-07    23   0.259E-03    0.406E-04
RMM:  12    -0.559172640299E+02   -0.43929E-05   -0.65380E-07    24   0.350E-03    0.669E-04
RMM:  13    -0.559172646902E+02   -0.66035E-06   -0.15276E-07    17   0.169E-03
  25 F= -.55982891E+02 E0= -.55983085E+02  d E =-.282159E-01
 curvature:  -2.53 expect dE=-0.116E+00 dE for cont linesearch -0.394E-02
 ZBRENT: increasing intervall
 opt :   1.5967  next Energy=   -55.978591 (dE=-0.239E-01)
 bond charge predicted
       N       E                     dE             d eps       ncg     rms          rms(c)
DAV:   1    -0.558913345640E+02    0.25929E-01   -0.18104E+01    36   0.335E+01    0.111E+00
RMM:   2    -0.559123188017E+02   -0.20984E-01   -0.32840E-01    36   0.375E+00    0.694E-01
RMM:   3    -0.559103966362E+02    0.19222E-02   -0.16241E-02    37   0.728E-01    0.413E-01
RMM:   4    -0.559117972434E+02   -0.14006E-02   -0.68770E-03    36   0.469E-01    0.119E-01
RMM:   5    -0.559121396713E+02   -0.34243E-03   -0.87387E-04    36   0.166E-01    0.258E-02
RMM:   6    -0.559121536921E+02   -0.14021E-04   -0.12140E-04    37   0.556E-02    0.827E-03
RMM:   7    -0.559115927939E+02    0.56090E-03   -0.14374E-05    35   0.182E-02    0.488E-03
RMM:   8    -0.559116204478E+02   -0.27654E-04   -0.48569E-06    32   0.105E-02    0.183E-03
RMM:   9    -0.559116337972E+02   -0.13349E-04   -0.15453E-06    25   0.543E-03    0.131E-03
RMM:  10    -0.559116579976E+02   -0.24200E-04   -0.42931E-06    30   0.761E-03    0.189E-03
RMM:  11    -0.559116628190E+02   -0.48213E-05   -0.82368E-07    24   0.461E-03    0.531E-04
RMM:  12    -0.559116723121E+02   -0.94932E-05   -0.11208E-06    24   0.398E-03    0.621E-04
RMM:  13    -0.559116742948E+02   -0.19827E-05   -0.19966E-07    19   0.200E-03    0.323E-04
RMM:  14    -0.559116776342E+02   -0.33395E-05   -0.40594E-07    23   0.266E-03    0.507E-04
RMM:  15    -0.559116781600E+02   -0.52579E-06   -0.96064E-08    15   0.141E-03
  26 F= -.55978303E+02 E0= -.55978496E+02  d E =-.236272E-01
 curvature:   2.77 expect dE= 0.451E+00 dE for cont linesearch  0.840E-02
 ZBRENT: bracketing found
 ZBRENT: interpolating
 opt :   1.0383  next Energy=   -55.987825 (dE=-0.331E-01)
 bond charge predicted
       N       E                     dE             d eps       ncg     rms          rms(c)
DAV:   1    -0.559155548566E+02   -0.38772E-02   -0.61748E+00    36   0.196E+01    0.631E-01
RMM:   2    -0.559212971486E+02   -0.57423E-02   -0.99988E-02    36   0.207E+00    0.393E-01
RMM:   3    -0.559210620453E+02    0.23510E-03   -0.53954E-03    37   0.420E-01    0.221E-01
RMM:   4    -0.559223808984E+02   -0.13189E-02   -0.14165E-03    36   0.216E-01    0.540E-02
RMM:   5    -0.559217584373E+02    0.62246E-03   -0.20221E-04    36   0.784E-02    0.135E-02
RMM:   6    -0.559217633346E+02   -0.48974E-05   -0.30886E-05    37   0.271E-02    0.455E-03
RMM:   7    -0.559217689698E+02   -0.56352E-05   -0.24476E-06    27   0.801E-03    0.263E-03
RMM:   8    -0.559217790215E+02   -0.10052E-04   -0.15503E-06    24   0.627E-03    0.906E-04
RMM:   9    -0.559217859369E+02   -0.69154E-05   -0.57790E-07    24   0.361E-03    0.643E-04
RMM:  10    -0.559217973241E+02   -0.11387E-04   -0.13961E-06    24   0.415E-03    0.670E-04
RMM:  11    -0.559217993081E+02   -0.19840E-05   -0.20040E-07    23   0.214E-03    0.274E-04
RMM:  12    -0.559218045367E+02   -0.52285E-05   -0.35198E-07    23   0.247E-03    0.402E-04
RMM:  13    -0.559218057017E+02   -0.11651E-05   -0.86417E-08    15   0.137E-03    0.176E-04
RMM:  14    -0.559218080785E+02   -0.23768E-05   -0.23641E-07    23   0.215E-03    0.468E-04
RMM:  15    -0.559218083852E+02   -0.30671E-06   -0.36887E-08    13   0.116E-03
  27 F= -.55987867E+02 E0= -.55988060E+02  d E =-.331917E-01
 curvature:  -1.63 expect dE=-0.119E+00 dE for cont linesearch -0.973E-07
 trial: gam= 0.89101 g(F)=  0.730E-01 g(S)=  0.000E+00 ort = 0.153E-03 (trialstep = 0.335E+00)
 search vector abs. value=  0.385E+00
 bond charge predicted
       N       E                     dE             d eps       ncg     rms          rms(c)
DAV:   1    -0.559330648697E+02   -0.11257E-01   -0.27212E+00    36   0.127E+01    0.417E-01
RMM:   2    -0.559370337566E+02   -0.39689E-02   -0.57656E-02    37   0.161E+00    0.251E-01
RMM:   3    -0.559365933246E+02    0.44043E-03   -0.19866E-03    36   0.292E-01    0.146E-01
RMM:   4    -0.559367966052E+02   -0.20328E-03   -0.11592E-03    36   0.183E-01    0.301E-02
RMM:   5    -0.559367817324E+02    0.14873E-04   -0.54895E-05    36   0.472E-02    0.122E-02
RMM:   6    -0.559367846202E+02   -0.28878E-05   -0.38312E-05    36   0.297E-02    0.385E-03
RMM:   7    -0.559367926752E+02   -0.80550E-05   -0.13305E-06    25   0.663E-03    0.235E-03
RMM:   8    -0.559368168609E+02   -0.24186E-04   -0.60196E-06    33   0.104E-02    0.285E-03
RMM:   9    -0.559368185828E+02   -0.17219E-05   -0.30674E-07    24   0.323E-03    0.205E-03
RMM:  10    -0.559368426711E+02   -0.24088E-04   -0.72571E-06    32   0.114E-02    0.286E-03
RMM:  11    -0.559368431746E+02   -0.50347E-06   -0.34114E-07    24   0.306E-03
  28 F= -.56003179E+02 E0= -.56003179E+02  d E =-.153122E-01
 trial-energy change:   -0.015312  1 .order   -0.014738   -0.024516   -0.004960
 step:   0.4055(harm=  0.4205)  dis= 0.01559  next Energy=   -56.003703 (dE=-0.158E-01)
 bond charge predicted
       N       E                     dE             d eps       ncg     rms          rms(c)
DAV:   1    -0.559372637982E+02   -0.42113E-03   -0.11921E-01    38   0.266E+00    0.871E-02
RMM:   2    -0.559374025348E+02   -0.13874E-03   -0.24867E-03    37   0.332E-01    0.526E-02
RMM:   3    -0.559373865027E+02    0.16032E-04   -0.86448E-05    36   0.608E-02    0.305E-02
RMM:   4    -0.559373995688E+02   -0.13066E-04   -0.49763E-05    36   0.378E-02    0.611E-03
RMM:   5    -0.559373990611E+02    0.50765E-06   -0.20925E-06    26   0.970E-03
  29 F= -.56003789E+02 E0= -.56003789E+02  d E =-.159224E-01
 curvature:  -1.07 expect dE=-0.424E-01 dE for cont linesearch -0.155E-04
 trial: gam= 0.49242 g(F)=  0.395E-01 g(S)=  0.000E+00 ort = 0.236E-02 (trialstep = 0.349E+00)
 search vector abs. value=  0.135E+00
 bond charge predicted
       N       E                     dE             d eps       ncg     rms          rms(c)
DAV:   1    -0.559470277660E+02   -0.96282E-02   -0.63431E-01    36   0.625E+00    0.200E-01
RMM:   2    -0.559468617052E+02    0.16606E-03   -0.85706E-03    36   0.668E-01    0.133E-01
RMM:   3    -0.559468479075E+02    0.13798E-04   -0.12244E-03    36   0.199E-01    0.396E-02
RMM:   4    -0.559468432445E+02    0.46629E-05   -0.71763E-05    37   0.503E-02    0.183E-02
RMM:   5    -0.559474157711E+02   -0.57253E-03   -0.25752E-05    36   0.249E-02    0.559E-03
RMM:   6    -0.559474183489E+02   -0.25778E-05   -0.10108E-05    34   0.140E-02    0.242E-03
RMM:   7    -0.559474246136E+02   -0.62647E-05   -0.13546E-06    24   0.631E-03    0.109E-03
RMM:   8    -0.559474294600E+02   -0.48464E-05   -0.48347E-07    24   0.361E-03    0.768E-04
RMM:   9    -0.559468562719E+02    0.57319E-03   -0.92461E-07    24   0.415E-03    0.864E-04
RMM:  10    -0.559468614106E+02   -0.51387E-05   -0.76086E-07    23   0.297E-03    0.669E-04
RMM:  11    -0.559468631827E+02   -0.17721E-05   -0.17347E-07    21   0.208E-03    0.258E-04
RMM:  12    -0.559468658464E+02   -0.26637E-05   -0.31103E-07    23   0.242E-03    0.319E-04
RMM:  13    -0.559468661855E+02   -0.33915E-06   -0.48975E-08    13   0.122E-03
  30 F= -.56013423E+02 E0= -.56013617E+02  d E =-.963401E-02
 trial-energy change:   -0.009634  1 .order   -0.010193   -0.014218   -0.006169
 step:   0.6172(harm=  0.6172)  dis= 0.01588  next Energy=   -56.016347 (dE=-0.126E-01)
 bond charge predicted
       N       E                     dE             d eps       ncg     rms          rms(c)
DAV:   1    -0.559494323283E+02   -0.25665E-02   -0.37225E-01    36   0.479E+00    0.153E-01
RMM:   2    -0.559490867282E+02    0.34560E-03   -0.50166E-03    36   0.511E-01    0.102E-01
RMM:   3    -0.559490789467E+02    0.77815E-05   -0.72731E-04    36   0.153E-01    0.304E-02
RMM:   4    -0.559490751186E+02    0.38281E-05   -0.42990E-05    37   0.386E-02    0.141E-02
RMM:   5    -0.559490704755E+02    0.46431E-05   -0.16066E-05    36   0.196E-02    0.421E-03
RMM:   6    -0.559490719317E+02   -0.14562E-05   -0.57178E-06    34   0.105E-02    0.185E-03
RMM:   7    -0.559490759857E+02   -0.40540E-05   -0.78325E-07    24   0.478E-03    0.830E-04
RMM:   8    -0.559490792370E+02   -0.32514E-05   -0.28673E-07    24   0.276E-03    0.583E-04
RMM:   9    -0.559490841705E+02   -0.49335E-05   -0.61180E-07    23   0.332E-03    0.672E-04
RMM:  10    -0.559490873225E+02   -0.31520E-05   -0.36211E-07    21   0.231E-03    0.508E-04
RMM:  11    -0.559490888017E+02   -0.14792E-05   -0.18957E-07    18   0.190E-03    0.146E-04
RMM:  12    -0.559490904648E+02   -0.16631E-05   -0.26809E-07    22   0.214E-03    0.288E-04
RMM:  13    -0.559490907200E+02   -0.25522E-06   -0.58386E-08    13   0.117E-03
  31 F= -.56015772E+02 E0= -.56015966E+02  d E =-.119829E-01
 curvature:  -1.02 expect dE=-0.520E-01 dE for cont linesearch -0.270E-06
 trial: gam= 1.34055 g(F)=  0.508E-01 g(S)=  0.000E+00 ort =-0.189E-03 (trialstep = 0.186E+00)
 search vector abs. value=  0.293E+00
 bond charge predicted
       N       E                     dE             d eps       ncg     rms          rms(c)
DAV:   1    -0.559554669262E+02   -0.63765E-02   -0.36766E-01    36   0.474E+00    0.156E-01
RMM:   2    -0.559564688779E+02   -0.10020E-02   -0.70301E-03    36   0.590E-01    0.943E-02
RMM:   3    -0.559558996541E+02    0.56922E-03   -0.45470E-04    37   0.125E-01    0.400E-02
RMM:   4    -0.559559081463E+02   -0.84923E-05   -0.75353E-05    36   0.530E-02    0.103E-02
RMM:   5    -0.559559069482E+02    0.11982E-05   -0.95331E-06    36   0.171E-02    0.376E-03
RMM:   6    -0.559559103035E+02   -0.33553E-05   -0.26367E-06    26   0.826E-03    0.186E-03
RMM:   7    -0.559559147354E+02   -0.44319E-05   -0.44109E-07    24   0.398E-03    0.109E-03
RMM:   8    -0.559559238526E+02   -0.91173E-05   -0.11841E-06    24   0.491E-03    0.914E-04
RMM:   9    -0.559559272912E+02   -0.34385E-05   -0.51711E-07    23   0.309E-03    0.538E-04
RMM:  10    -0.559559355422E+02   -0.82510E-05   -0.11699E-06    24   0.367E-03    0.571E-04
RMM:  11    -0.559559369974E+02   -0.14552E-05   -0.19323E-07    17   0.184E-03    0.428E-04
RMM:  12    -0.559559403817E+02   -0.33842E-05   -0.53213E-07    24   0.308E-03    0.500E-04
RMM:  13    -0.559559405854E+02   -0.20378E-06   -0.94660E-08    15   0.148E-03
  32 F= -.56022693E+02 E0= -.56022886E+02  d E =-.692023E-02
 trial-energy change:   -0.006920  1 .order   -0.006920   -0.009382   -0.004457
 step:   0.3539(harm=  0.3539)  dis= 0.01543  next Energy=   -56.024709 (dE=-0.894E-02)
 bond charge predicted
       N       E                     dE             d eps       ncg     rms          rms(c)
DAV:   1    -0.559575020821E+02   -0.15617E-02   -0.30120E-01    36   0.429E+00    0.142E-01
RMM:   2    -0.559584267643E+02   -0.92468E-03   -0.57746E-03    36   0.534E-01    0.852E-02
RMM:   3    -0.559584378004E+02   -0.11036E-04   -0.36971E-04    37   0.113E-01    0.365E-02
RMM:   4    -0.559578654338E+02    0.57237E-03   -0.63032E-05    36   0.484E-02    0.931E-03
RMM:   5    -0.559578640035E+02    0.14303E-05   -0.74184E-06    35   0.152E-02    0.349E-03
RMM:   6    -0.559578665013E+02   -0.24979E-05   -0.23332E-06    26   0.797E-03    0.169E-03
RMM:   7    -0.559578705436E+02   -0.40423E-05   -0.41153E-07    24   0.385E-03    0.943E-04
RMM:   8    -0.559578778959E+02   -0.73523E-05   -0.93907E-07    24   0.438E-03    0.845E-04
RMM:   9    -0.559578806118E+02   -0.27160E-05   -0.39987E-07    23   0.277E-03    0.464E-04
RMM:  10    -0.559578879009E+02   -0.72890E-05   -0.96865E-07    25   0.335E-03    0.455E-04
RMM:  11    -0.559578891994E+02   -0.12986E-05   -0.14874E-07    15   0.162E-03    0.352E-04
RMM:  12    -0.559578922783E+02   -0.30789E-05   -0.45208E-07    23   0.273E-03    0.413E-04
RMM:  13    -0.559578924040E+02   -0.12566E-06   -0.82492E-08    15   0.140E-03
  33 F= -.56024704E+02 E0= -.56024897E+02  d E =-.893174E-02
 curvature:  -1.03 expect dE=-0.195E-01 dE for cont linesearch -0.289E-07
 trial: gam= 0.34329 g(F)=  0.190E-01 g(S)=  0.000E+00 ort =-0.908E-04 (trialstep = 0.219E+00)
 search vector abs. value=  0.535E-01
 bond charge predicted
       N       E                     dE             d eps       ncg     rms          rms(c)
DAV:   1    -0.559608252061E+02   -0.29329E-02   -0.10042E-01    40   0.245E+00    0.822E-02
RMM:   2    -0.559609570590E+02   -0.13185E-03   -0.21931E-03    36   0.325E-01    0.538E-02
RMM:   3    -0.559609492500E+02    0.78090E-05   -0.16042E-04    37   0.756E-02    0.224E-02
RMM:   4    -0.559609516602E+02   -0.24102E-05   -0.28565E-05    36   0.304E-02    0.603E-03
RMM:   5    -0.559609513635E+02    0.29671E-06   -0.14801E-06    24   0.776E-03
  34 F= -.56027850E+02 E0= -.56028043E+02  d E =-.314616E-02
 trial-energy change:   -0.003146  1 .order   -0.003148   -0.004161   -0.002135
 step:   0.4507(harm=  0.4507)  dis= 0.00814  next Energy=   -56.028978 (dE=-0.427E-02)
 bond charge predicted
       N       E                     dE             d eps       ncg     rms          rms(c)
DAV:   1    -0.559618529226E+02   -0.90126E-03   -0.11198E-01    38   0.259E+00    0.870E-02
RMM:   2    -0.559619995687E+02   -0.14665E-03   -0.24745E-03    36   0.344E-01    0.570E-02
RMM:   3    -0.559619889218E+02    0.10647E-04   -0.18102E-04    37   0.801E-02    0.239E-02
RMM:   4    -0.559619934144E+02   -0.44927E-05   -0.32976E-05    36   0.325E-02    0.649E-03
RMM:   5    -0.559619947517E+02   -0.13373E-05   -0.17673E-06    24   0.836E-03    0.337E-03
RMM:   6    -0.559619986309E+02   -0.38792E-05   -0.37358E-06    30   0.878E-03    0.144E-03
RMM:   7    -0.559619999604E+02   -0.13295E-05   -0.26847E-07    23   0.312E-03    0.985E-04
RMM:   8    -0.559620065965E+02   -0.66361E-05   -0.11391E-06    24   0.496E-03    0.102E-03
RMM:   9    -0.559620069635E+02   -0.36701E-06   -0.17530E-07    23   0.234E-03
  35 F= -.56028997E+02 E0= -.56029190E+02  d E =-.429282E-02
 curvature:  -0.64 expect dE=-0.525E-02 dE for cont linesearch -0.119E-06
 trial: gam= 0.42007 g(F)=  0.826E-02 g(S)=  0.000E+00 ort = 0.100E-03 (trialstep = 0.266E+00)
 search vector abs. value=  0.178E-01
 bond charge predicted
       N       E                     dE             d eps       ncg     rms          rms(c)
DAV:   1    -0.559636335740E+02   -0.16270E-02   -0.64170E-02    40   0.197E+00    0.647E-02
RMM:   2    -0.559637192859E+02   -0.85712E-04   -0.13618E-03    36   0.262E-01    0.394E-02
RMM:   3    -0.559637182573E+02    0.10286E-05   -0.77941E-05    37   0.519E-02    0.187E-02
RMM:   4    -0.559637283721E+02   -0.10115E-04   -0.28728E-05    36   0.287E-02    0.571E-03
RMM:   5    -0.559637285927E+02   -0.22060E-06   -0.18196E-06    24   0.765E-03
  36 F= -.56030759E+02 E0= -.56030952E+02  d E =-.176161E-02
 trial-energy change:   -0.001762  1 .order   -0.001754   -0.002205   -0.001303
 step:   0.6092(harm=  0.6492)  dis= 0.00540  next Energy=   -56.031617 (dE=-0.262E-02)
 bond charge predicted
       N       E                     dE             d eps       ncg     rms          rms(c)
DAV:   1    -0.559644781978E+02   -0.74983E-03   -0.10747E-01    38   0.255E+00    0.840E-02
RMM:   2    -0.559646188655E+02   -0.14067E-03   -0.22922E-03    36   0.341E-01    0.512E-02
RMM:   3    -0.559646133582E+02    0.55073E-05   -0.13423E-04    37   0.677E-02    0.243E-02
RMM:   4    -0.559646276544E+02   -0.14296E-04   -0.49027E-05    36   0.375E-02    0.760E-03
RMM:   5    -0.559646272172E+02    0.43725E-06   -0.36738E-06    30   0.102E-02
  37 F= -.56031708E+02 E0= -.56031901E+02  d E =-.271120E-02
 curvature:  -0.69 expect dE=-0.254E-02 dE for cont linesearch -0.131E-04
 trial: gam= 0.39229 g(F)=  0.369E-02 g(S)=  0.000E+00 ort = 0.582E-03 (trialstep = 0.334E+00)
 search vector abs. value=  0.688E-02
 bond charge predicted
       N       E                     dE             d eps       ncg     rms          rms(c)
DAV:   1    -0.559653130602E+02   -0.68541E-03   -0.60983E-02    40   0.192E+00    0.622E-02
RMM:   2    -0.559653877689E+02   -0.74709E-04   -0.12172E-03    36   0.246E-01    0.391E-02
RMM:   3    -0.559653816589E+02    0.61100E-05   -0.92423E-05    36   0.559E-02    0.154E-02
RMM:   4    -0.559653835039E+02   -0.18450E-05   -0.13670E-05    37   0.210E-02    0.565E-03
RMM:   5    -0.559653826596E+02    0.84432E-06   -0.13232E-06    24   0.666E-03
  38 F= -.56032493E+02 E0= -.56032686E+02  d E =-.784525E-03
 trial-energy change:   -0.000785  1 .order   -0.000779   -0.001310   -0.000249
 step:   0.4100(harm=  0.4128)  dis= 0.00268  next Energy=   -56.032521 (dE=-0.813E-03)
 bond charge predicted
       N       E                     dE             d eps       ncg     rms          rms(c)
DAV:   1    -0.559654039494E+02   -0.20446E-04   -0.31601E-03    46   0.436E-01    0.145E-02
RMM:   2    -0.559654066570E+02   -0.27076E-05   -0.57859E-05    36   0.545E-02    0.893E-03
RMM:   3    -0.559654063968E+02    0.26023E-06   -0.53010E-06    33   0.133E-02
  39 F= -.56032523E+02 E0= -.56032716E+02  d E =-.814830E-03
 curvature:  -0.36 expect dE=-0.107E-02 dE for cont linesearch -0.159E-06
 trial: gam= 0.87062 g(F)=  0.296E-02 g(S)=  0.000E+00 ort = 0.550E-04 (trialstep = 0.291E+00)
 search vector abs. value=  0.827E-02
 bond charge predicted
       N       E                     dE             d eps       ncg     rms          rms(c)
DAV:   1    -0.559659010683E+02   -0.49441E-03   -0.62038E-02    38   0.191E+00    0.590E-02
RMM:   2    -0.559659775499E+02   -0.76482E-04   -0.12935E-03    36   0.243E-01    0.326E-02
RMM:   3    -0.559659805577E+02   -0.30078E-05   -0.61668E-05    37   0.435E-02    0.180E-02
RMM:   4    -0.559659865794E+02   -0.60217E-05   -0.22050E-05    36   0.264E-02    0.412E-03
RMM:   5    -0.559659868239E+02   -0.24447E-06   -0.89136E-07    24   0.627E-03
  40 F= -.56033109E+02 E0= -.56033302E+02  d E =-.585628E-03
 trial-energy change:   -0.000586  1 .order   -0.000587   -0.000875   -0.000299
 step:   0.4420(harm=  0.4420)  dis= 0.00308  next Energy=   -56.033188 (dE=-0.665E-03)
 bond charge predicted
       N       E                     dE             d eps       ncg     rms          rms(c)
DAV:   1    -0.559660404122E+02   -0.53833E-04   -0.16832E-02    40   0.995E-01    0.307E-02
RMM:   2    -0.559660609221E+02   -0.20510E-04   -0.35587E-04    36   0.127E-01    0.170E-02
RMM:   3    -0.559660607076E+02    0.21443E-06   -0.16727E-05    37   0.227E-02    0.949E-03
RMM:   4    -0.559660622062E+02   -0.14985E-05   -0.65255E-06    34   0.142E-02    0.226E-03
RMM:   5    -0.559660629155E+02   -0.70934E-06   -0.34727E-07    24   0.386E-03
  41 F= -.56033187E+02 E0= -.56033380E+02  d E =-.664278E-03
 curvature:  -0.61 expect dE=-0.151E-02 dE for cont linesearch -0.669E-08
 trial: gam= 0.79976 g(F)=  0.248E-02 g(S)=  0.000E+00 ort = 0.954E-05 (trialstep = 0.321E+00)
 search vector abs. value=  0.778E-02
 bond charge predicted
       N       E                     dE             d eps       ncg     rms          rms(c)
DAV:   1    -0.559665795967E+02   -0.51739E-03   -0.50078E-02    40   0.173E+00    0.518E-02
RMM:   2    -0.559666286670E+02   -0.49070E-04   -0.85989E-04    36   0.202E-01    0.308E-02
RMM:   3    -0.559666328542E+02   -0.41871E-05   -0.47341E-05    37   0.393E-02    0.160E-02
RMM:   4    -0.559666402014E+02   -0.73472E-05   -0.13329E-05    35   0.199E-02    0.331E-03
RMM:   5    -0.559666408264E+02   -0.62504E-06   -0.56642E-07    24   0.504E-03
  42 F= -.56033798E+02 E0= -.56033991E+02  d E =-.610561E-03
 trial-energy change:   -0.000611  1 .order   -0.000605   -0.000798   -0.000413
 step:   0.6184(harm=  0.6652)  dis= 0.00307  next Energy=   -56.033993 (dE=-0.806E-03)
 bond charge predicted
       N       E                     dE             d eps       ncg     rms          rms(c)
DAV:   1    -0.559667832324E+02   -0.14303E-03   -0.43079E-02    38   0.161E+00    0.480E-02
RMM:   2    -0.559668240526E+02   -0.40820E-04   -0.73941E-04    36   0.187E-01    0.286E-02
RMM:   3    -0.559668275777E+02   -0.35251E-05   -0.41106E-05    37   0.367E-02    0.147E-02
RMM:   4    -0.559668333140E+02   -0.57363E-05   -0.11314E-05    35   0.183E-02    0.311E-03
RMM:   5    -0.559668338062E+02   -0.49215E-06   -0.48749E-07    24   0.468E-03
  43 F= -.56034021E+02 E0= -.56034214E+02  d E =-.833388E-03
 curvature:  -1.02 expect dE=-0.150E-02 dE for cont linesearch -0.456E-05
 trial: gam= 0.50595 g(F)=  0.147E-02 g(S)=  0.000E+00 ort = 0.186E-03 (trialstep = 0.380E+00)
 search vector abs. value=  0.365E-02
 bond charge predicted
       N       E                     dE             d eps       ncg     rms          rms(c)
DAV:   1    -0.559672338425E+02   -0.40053E-03   -0.17237E-02    40   0.104E+00    0.368E-02
RMM:   2    -0.559672437577E+02   -0.99152E-05   -0.26820E-04    36   0.120E-01    0.228E-02
RMM:   3    -0.559672459956E+02   -0.22379E-05   -0.29957E-05    36   0.301E-02    0.895E-03
RMM:   4    -0.559672477463E+02   -0.17507E-05   -0.33009E-06    28   0.105E-02    0.352E-03
RMM:   5    -0.559672481635E+02   -0.41720E-06   -0.74255E-07    24   0.516E-03
  44 F= -.56034452E+02 E0= -.56034645E+02  d E =-.431052E-03
 trial-energy change:   -0.000431  1 .order   -0.000427   -0.000593   -0.000261
 step:   0.6800(harm=  0.6800)  dis= 0.00318  next Energy=   -56.034551 (dE=-0.530E-03)
 bond charge predicted
       N       E                     dE             d eps       ncg     rms          rms(c)
DAV:   1    -0.559673318005E+02   -0.84054E-04   -0.10704E-02    40   0.819E-01    0.290E-02
RMM:   2    -0.559673379191E+02   -0.61186E-05   -0.16951E-04    36   0.954E-02    0.181E-02
RMM:   3    -0.559673390801E+02   -0.11610E-05   -0.19676E-05    37   0.241E-02    0.714E-03
RMM:   4    -0.559673401252E+02   -0.10451E-05   -0.16253E-06    24   0.810E-03    0.278E-03
RMM:   5    -0.559673404536E+02   -0.32839E-06   -0.46131E-07    24   0.434E-03
  45 F= -.56034557E+02 E0= -.56034750E+02  d E =-.536484E-03
 curvature:  -0.80 expect dE=-0.609E-03 dE for cont linesearch -0.503E-10
 trial: gam= 0.62875 g(F)=  0.766E-03 g(S)=  0.000E+00 ort =-0.480E-06 (trialstep = 0.440E+00)
 search vector abs. value=  0.221E-02
 bond charge predicted
       N       E                     dE             d eps       ncg     rms          rms(c)
DAV:   1    -0.559674823789E+02   -0.14225E-03   -0.24084E-02    36   0.120E+00    0.380E-02
RMM:   2    -0.559675108298E+02   -0.28451E-04   -0.49542E-04    36   0.160E-01    0.235E-02
RMM:   3    -0.559675078826E+02    0.29472E-05   -0.28448E-05    37   0.303E-02    0.117E-02
RMM:   4    -0.559675075720E+02    0.31057E-06   -0.10286E-05    36   0.173E-02    0.305E-03
RMM:   5    -0.559675073435E+02    0.22851E-06   -0.49713E-07    24   0.465E-03
  46 F= -.56034723E+02 E0= -.56034916E+02  d E =-.165470E-03
 trial-energy change:   -0.000165  1 .order   -0.000167   -0.000337    0.000004
 step:   0.4354(harm=  0.4354)  dis= 0.00143  next Energy=   -56.034724 (dE=-0.167E-03)
 bond charge predicted
       N       E                     dE             d eps       ncg     rms          rms(c)
DAV:   1    -0.559675074541E+02    0.11799E-06   -0.31595E-06    46   0.134E-02    0.746E-04
RMM:   2    -0.559675078167E+02   -0.36263E-06   -0.56065E-08    21   0.190E-03
  47 F= -.56034723E+02 E0= -.56034916E+02  d E =-.165960E-03
 curvature:  -0.63 expect dE=-0.404E-03 dE for cont linesearch -0.461E-08
 trial: gam= 0.80789 g(F)=  0.645E-03 g(S)=  0.000E+00 ort = 0.403E-05 (trialstep = 0.439E+00)
 search vector abs. value=  0.209E-02
 bond charge predicted
       N       E                     dE             d eps       ncg     rms          rms(c)
DAV:   1    -0.559675842242E+02   -0.76770E-04   -0.20677E-02    40   0.111E+00    0.370E-02
RMM:   2    -0.559676055969E+02   -0.21373E-04   -0.37105E-04    36   0.138E-01    0.247E-02
RMM:   3    -0.559676011284E+02    0.44685E-05   -0.43181E-05    36   0.376E-02    0.779E-03
RMM:   4    -0.559676015462E+02   -0.41774E-06   -0.31219E-06    28   0.106E-02
  48 F= -.56034834E+02 E0= -.56035027E+02  d E =-.111198E-03
 trial-energy change:   -0.000111  1 .order   -0.000108   -0.000285    0.000069
 step:   0.3535(harm=  0.3535)  dis= 0.00119  next Energy=   -56.034838 (dE=-0.115E-03)
 bond charge predicted
       N       E                     dE             d eps       ncg     rms          rms(c)
DAV:   1    -0.559676116370E+02   -0.10509E-04   -0.78722E-04    46   0.217E-01    0.739E-03
RMM:   2    -0.559676117303E+02   -0.93317E-07   -0.10572E-05    35   0.236E-02    0.458E-03
RMM:   3    -0.559676117945E+02   -0.64178E-07   -0.20806E-06    25   0.810E-03
  49 F= -.56034841E+02 E0= -.56035034E+02  d E =-.118043E-03
 curvature:  -0.57 expect dE=-0.248E-03 dE for cont linesearch -0.523E-09
 trial: gam= 0.68192 g(F)=  0.434E-03 g(S)=  0.000E+00 ort =-0.138E-05 (trialstep = 0.422E+00)
 search vector abs. value=  0.140E-02
 bond charge predicted
       N       E                     dE             d eps       ncg     rms          rms(c)
DAV:   1    -0.559677465612E+02   -0.13483E-03   -0.84061E-03    38   0.703E-01    0.242E-02
RMM:   2    -0.559677541187E+02   -0.75575E-05   -0.13829E-04    36   0.849E-02    0.150E-02
RMM:   3    -0.559677541516E+02   -0.32904E-07   -0.12626E-05    37   0.196E-02    0.603E-03
RMM:   4    -0.559677548438E+02   -0.69222E-06   -0.18262E-06    24   0.798E-03
  50 F= -.56034995E+02 E0= -.56035188E+02  d E =-.153998E-03
 trial-energy change:   -0.000154  1 .order   -0.000153   -0.000183   -0.000123
 step:   1.2891(harm=  1.2891)  dis= 0.00462  next Energy=   -56.035120 (dE=-0.279E-03)
 bond charge predicted
       N       E                     dE             d eps       ncg     rms          rms(c)
DAV:   1    -0.559678260711E+02   -0.71919E-04   -0.35459E-02    38   0.144E+00    0.502E-02
RMM:   2    -0.559678596603E+02   -0.33589E-04   -0.59366E-04    36   0.176E-01    0.312E-02
RMM:   3    -0.559678592889E+02    0.37143E-06   -0.51315E-05    37   0.397E-02    0.127E-02
RMM:   4    -0.559678618801E+02   -0.25912E-05   -0.96112E-06    35   0.166E-02    0.465E-03
RMM:   5    -0.559678612670E+02    0.61307E-06   -0.13697E-06    24   0.655E-03
  51 F= -.56035124E+02 E0= -.56035317E+02  d E =-.282612E-03
 curvature:  -2.09 expect dE=-0.105E-02 dE for cont linesearch -0.168E-09
 trial: gam= 1.13127 g(F)=  0.503E-03 g(S)=  0.000E+00 ort = 0.336E-06 (trialstep = 0.363E+00)
 search vector abs. value=  0.230E-02
 bond charge predicted
       N       E                     dE             d eps       ncg     rms          rms(c)
DAV:   1    -0.559679579586E+02   -0.96079E-04   -0.12897E-02    38   0.887E-01    0.287E-02
RMM:   2    -0.559679739843E+02   -0.16026E-04   -0.24763E-04    36   0.111E-01    0.172E-02
RMM:   3    -0.559679749673E+02   -0.98303E-06   -0.12410E-05    37   0.216E-02    0.872E-03
RMM:   4    -0.559679766246E+02   -0.16573E-05   -0.22454E-06    24   0.960E-03    0.184E-03
RMM:   5    -0.559679768308E+02   -0.20622E-06   -0.36764E-07    24   0.412E-03
  52 F= -.56035258E+02 E0= -.56035451E+02  d E =-.134029E-03
 trial-energy change:   -0.000134  1 .order   -0.000133   -0.000183   -0.000083
 step:   0.6682(harm=  0.6682)  dis= 0.00239  next Energy=   -56.035292 (dE=-0.168E-03)
 bond charge predicted
       N       E                     dE             d eps       ncg     rms          rms(c)
DAV:   1    -0.559679841218E+02   -0.74971E-05   -0.90781E-03    38   0.744E-01    0.241E-02
RMM:   2    -0.559679953482E+02   -0.11226E-04   -0.17561E-04    36   0.934E-02    0.144E-02
RMM:   3    -0.559679960551E+02   -0.70694E-06   -0.88873E-06    36   0.183E-02
  53 F= -.56035292E+02 E0= -.56035486E+02  d E =-.168701E-03
 curvature:  -1.53 expect dE=-0.594E-03 dE for cont linesearch -0.591E-08
 trial: gam= 0.77340 g(F)=  0.389E-03 g(S)=  0.000E+00 ort = 0.299E-05 (trialstep = 0.424E+00)
 search vector abs. value=  0.177E-02
 bond charge predicted
       N       E                     dE             d eps       ncg     rms          rms(c)
DAV:   1    -0.559680636772E+02   -0.68329E-04   -0.13288E-02    38   0.900E-01    0.301E-02
RMM:   2    -0.559680791310E+02   -0.15454E-04   -0.25063E-04    36   0.113E-01    0.207E-02
RMM:   3    -0.559680788233E+02    0.30765E-06   -0.17726E-05    36   0.252E-02    0.902E-03
RMM:   4    -0.559680800353E+02   -0.12120E-05   -0.42144E-06    31   0.116E-02    0.269E-03
RMM:   5    -0.559680799404E+02    0.94818E-07   -0.48627E-07    24   0.438E-03
  54 F= -.56035401E+02 E0= -.56035594E+02  d E =-.108283E-03
 trial-energy change:   -0.000108  1 .order   -0.000105   -0.000166   -0.000043
 step:   0.5748(harm=  0.5748)  dis= 0.00178  next Energy=   -56.035405 (dE=-0.113E-03)
 bond charge predicted
       N       E                     dE             d eps       ncg     rms          rms(c)
DAV:   1    -0.559680786255E+02    0.14097E-05   -0.16961E-03    46   0.320E-01    0.108E-02
RMM:   2    -0.559680797522E+02   -0.11267E-05   -0.26239E-05    36   0.374E-02    0.719E-03
RMM:   3    -0.559680796914E+02    0.60833E-07   -0.24896E-06    25   0.976E-03
  55 F= -.56035409E+02 E0= -.56035602E+02  d E =-.116666E-03
 curvature:  -1.30 expect dE=-0.846E-03 dE for cont linesearch -0.251E-07
 trial: gam= 1.68013 g(F)=  0.651E-03 g(S)=  0.000E+00 ort = 0.584E-05 (trialstep = 0.142E+00)
 search vector abs. value=  0.567E-02
 bond charge predicted
       N       E                     dE             d eps       ncg     rms          rms(c)
DAV:   1    -0.559681439305E+02   -0.64178E-04   -0.62880E-03    40   0.611E-01    0.199E-02
RMM:   2    -0.559681519331E+02   -0.80026E-05   -0.13342E-04    36   0.785E-02    0.118E-02
RMM:   3    -0.559681522425E+02   -0.30943E-06   -0.54958E-06    30   0.142E-02
  56 F= -.56035488E+02 E0= -.56035681E+02  d E =-.785102E-04
 trial-energy change:   -0.000079  1 .order   -0.000080   -0.000094   -0.000067
 step:   0.4918(harm=  0.4918)  dis= 0.00285  next Energy=   -56.035572 (dE=-0.162E-03)
 bond charge predicted
       N       E                     dE             d eps       ncg     rms          rms(c)
DAV:   1    -0.559681593926E+02   -0.74595E-05   -0.37974E-02    38   0.150E+00    0.487E-02
RMM:   2    -0.559682062741E+02   -0.46881E-04   -0.79023E-04    36   0.192E-01    0.288E-02
RMM:   3    -0.559682068958E+02   -0.62173E-06   -0.34775E-05    37   0.348E-02    0.153E-02
RMM:   4    -0.559682111493E+02   -0.42535E-05   -0.12453E-05    35   0.198E-02    0.384E-03
RMM:   5    -0.559682110759E+02    0.73463E-07   -0.70785E-07    24   0.535E-03
  57 F= -.56035561E+02 E0= -.56035754E+02  d E =-.151861E-03
 curvature:  -2.11 expect dE=-0.954E-03 dE for cont linesearch -0.484E-06
 trial: gam= 0.74357 g(F)=  0.452E-03 g(S)=  0.000E+00 ort =-0.360E-04 (trialstep = 0.212E+00)
 search vector abs. value=  0.353E-02
 bond charge predicted
       N       E                     dE             d eps       ncg     rms          rms(c)
DAV:   1    -0.559682696867E+02   -0.58537E-04   -0.84803E-03    38   0.712E-01    0.206E-02
RMM:   2    -0.559682796665E+02   -0.99797E-05   -0.15302E-04    36   0.841E-02    0.136E-02
RMM:   3    -0.559682803531E+02   -0.68666E-06   -0.54812E-06    31   0.153E-02
  58 F= -.56035637E+02 E0= -.56035830E+02  d E =-.758094E-04
 trial-energy change:   -0.000076  1 .order   -0.000076   -0.000090   -0.000061
 step:   0.6631(harm=  0.6631)  dis= 0.00325  next Energy=   -56.035702 (dE=-0.141E-03)
 bond charge predicted
       N       E                     dE             d eps       ncg     rms          rms(c)
DAV:   1    -0.559682790998E+02    0.56667E-06   -0.38096E-02    38   0.151E+00    0.441E-02
RMM:   2    -0.559683222629E+02   -0.43163E-04   -0.67533E-04    36   0.177E-01    0.289E-02
RMM:   3    -0.559683250909E+02   -0.28280E-05   -0.26016E-05    37   0.320E-02    0.148E-02
RMM:   4    -0.559683303723E+02   -0.52814E-05   -0.75723E-06    33   0.163E-02    0.280E-03
RMM:   5    -0.559683307329E+02   -0.36067E-06   -0.36364E-07    24   0.422E-03
  59 F= -.56035701E+02 E0= -.56035894E+02  d E =-.140020E-03
[...]
RMM:   2    -0.559704957050E+02   -0.99411E-04   -0.14839E-03    36   0.243E-01    0.375E-02
RMM:   3    -0.559704950413E+02    0.66370E-06   -0.37547E-05    36   0.400E-02    0.195E-02
RMM:   4    -0.559705052771E+02   -0.10236E-04   -0.17510E-05    36   0.247E-02    0.382E-03
RMM:   5    -0.559705057229E+02   -0.44581E-06   -0.54062E-07    24   0.446E-03
  86 F= -.56038103E+02 E0= -.56038296E+02  d E =-.249283E-03
 curvature:  -4.46 expect dE=-0.163E-02 dE for cont linesearch -0.102E-04
 ZBRENT: increasing intervall
 opt :   1.2447  next Energy=   -56.038043 (dE=-0.190E-03)
 bond charge predicted
       N       E                     dE             d eps       ncg     rms          rms(c)
DAV:   1    -0.559700203391E+02    0.48494E-03   -0.29787E-01    38   0.391E+00    0.112E-01
RMM:   2    -0.559704186961E+02   -0.39836E-03   -0.59267E-03    36   0.486E-01    0.752E-02
RMM:   3    -0.559704139707E+02    0.47254E-05   -0.15108E-04    36   0.804E-02    0.391E-02
RMM:   4    -0.559704507043E+02   -0.36734E-04   -0.71394E-05    36   0.495E-02    0.768E-03
RMM:   5    -0.559704514894E+02   -0.78515E-06   -0.25081E-06    26   0.890E-03
  87 F= -.56038054E+02 E0= -.56038247E+02  d E =-.200475E-03
 curvature:  26.03 expect dE= 0.418E-01 dE for cont linesearch  0.312E-03
 ZBRENT: bracketing found
 ZBRENT: interpolating
 opt :   0.8275  next Energy=   -56.038115 (dE=-0.261E-03)
 bond charge predicted
       N       E                     dE             d eps       ncg     rms          rms(c)
DAV:   1    -0.559702968931E+02    0.15381E-03   -0.14377E-01    38   0.272E+00    0.775E-02
RMM:   2    -0.559704908974E+02   -0.19400E-03   -0.28419E-03    36   0.336E-01    0.518E-02
RMM:   3    -0.559704977866E+02   -0.68892E-05   -0.69947E-05    36   0.551E-02    0.269E-02
RMM:   4    -0.559705229817E+02   -0.25195E-04   -0.32794E-05    36   0.341E-02    0.524E-03
RMM:   5    -0.559705232199E+02   -0.23820E-06   -0.12342E-06    25   0.664E-03
  88 F= -.56038122E+02 E0= -.56038315E+02  d E =-.268436E-03
 curvature:  -1.00 expect dE=-0.598E-03 dE for cont linesearch -0.187E-06
 trial: gam= 1.19995 g(F)=  0.596E-03 g(S)=  0.000E+00 ort = 0.375E-04 (trialstep = 0.289E+00)
 search vector abs. value=  0.116E-01
 bond charge predicted
       N       E                     dE             d eps       ncg     rms          rms(c)
DAV:   1    -0.559704914346E+02    0.31547E-04   -0.10353E-01    40   0.231E+00    0.653E-02
RMM:   2    -0.559706312864E+02   -0.13985E-03   -0.20770E-03    36   0.289E-01    0.443E-02
RMM:   3    -0.559706330773E+02   -0.17908E-05   -0.53162E-05    36   0.473E-02    0.233E-02
RMM:   4    -0.559706464811E+02   -0.13404E-04   -0.24035E-05    36   0.289E-02    0.452E-03
RMM:   5    -0.559706464185E+02    0.62593E-07   -0.10770E-06    25   0.591E-03
  89 F= -.56038238E+02 E0= -.56038431E+02  d E =-.116246E-03
 trial-energy change:   -0.000116  1 .order   -0.000119   -0.000185   -0.000053
 step:   0.4052(harm=  0.4052)  dis= 0.00504  next Energy=   -56.038252 (dE=-0.130E-03)
 bond charge predicted
       N       E                     dE             d eps       ncg     rms          rms(c)
DAV:   1    -0.559706377086E+02    0.87725E-05   -0.16977E-02    38   0.937E-01    0.267E-02
RMM:   2    -0.559706591476E+02   -0.21439E-04   -0.34434E-04    36   0.118E-01    0.182E-02
RMM:   3    -0.559706593380E+02   -0.19042E-06   -0.93211E-06    33   0.197E-02
  90 F= -.56038248E+02 E0= -.56038441E+02  d E =-.126336E-03
 curvature:  -3.66 expect dE=-0.192E-02 dE for cont linesearch -0.128E-05
 trial: gam= 0.81518 g(F)=  0.525E-03 g(S)=  0.000E+00 ort = 0.637E-04 (trialstep = 0.312E+00)
 search vector abs. value=  0.833E-02
 bond charge predicted
       N       E                     dE             d eps       ncg     rms          rms(c)
DAV:   1    -0.559706470692E+02    0.12078E-04   -0.81211E-02    38   0.207E+00    0.579E-02
RMM:   2    -0.559707531259E+02   -0.10606E-03   -0.16001E-03    36   0.258E-01    0.390E-02
RMM:   3    -0.559707562826E+02   -0.31567E-05   -0.42865E-05    36   0.433E-02    0.196E-02
RMM:   4    -0.559707668854E+02   -0.10603E-04   -0.17379E-05    36   0.250E-02    0.372E-03
RMM:   5    -0.559707675731E+02   -0.68769E-06   -0.54497E-07    24   0.440E-03
  91 F= -.56038358E+02 E0= -.56038551E+02  d E =-.109881E-03
 trial-energy change:   -0.000110  1 .order   -0.000112   -0.000180   -0.000043
 step:   0.4104(harm=  0.4104)  dis= 0.00430  next Energy=   -56.038367 (dE=-0.118E-03)
 bond charge predicted
       N       E                     dE             d eps       ncg     rms          rms(c)
DAV:   1    -0.559707651247E+02    0.17607E-05   -0.82313E-03    38   0.659E-01    0.185E-02
RMM:   2    -0.559707764040E+02   -0.11279E-04   -0.16877E-04    36   0.835E-02    0.126E-02
RMM:   3    -0.559707767254E+02   -0.32138E-06   -0.44917E-06    29   0.142E-02
  92 F= -.56038368E+02 E0= -.56038561E+02  d E =-.119542E-03
 curvature:  -2.96 expect dE=-0.804E-03 dE for cont linesearch -0.897E-06
 trial: gam= 0.52455 g(F)=  0.271E-03 g(S)=  0.000E+00 ort = 0.502E-04 (trialstep = 0.332E+00)
 search vector abs. value=  0.261E-02
 bond charge predicted
       N       E                     dE             d eps       ncg     rms          rms(c)
DAV:   1    -0.559708310334E+02   -0.54629E-04   -0.23535E-02    38   0.112E+00    0.321E-02
RMM:   2    -0.559708610115E+02   -0.29978E-04   -0.45089E-04    36   0.137E-01    0.210E-02
RMM:   3    -0.559708628817E+02   -0.18702E-05   -0.12059E-05    36   0.231E-02    0.103E-02
RMM:   4    -0.559708664894E+02   -0.36077E-05   -0.45948E-06    30   0.129E-02    0.205E-03
RMM:   5    -0.559708670397E+02   -0.55036E-06   -0.26168E-07    24   0.339E-03
  93 F= -.56038453E+02 E0= -.56038646E+02  d E =-.848019E-04
 trial-energy change:   -0.000085  1 .order   -0.000084   -0.000099   -0.000068
 step:   1.0796(harm=  1.0796)  dis= 0.00542  next Energy=   -56.038528 (dE=-0.161E-03)
 bond charge predicted
       N       E                     dE             d eps       ncg     rms          rms(c)
DAV:   1    -0.559707852578E+02    0.81232E-04   -0.12122E-01    38   0.255E+00    0.728E-02
RMM:   2    -0.559709445795E+02   -0.15932E-03   -0.23733E-03    36   0.314E-01    0.480E-02
RMM:   3    -0.559709489678E+02   -0.43883E-05   -0.62011E-05    36   0.529E-02    0.237E-02
RMM:   4    -0.559709641256E+02   -0.15158E-04   -0.26013E-05    36   0.303E-02    0.487E-03
RMM:   5    -0.559709647105E+02   -0.58489E-06   -0.96093E-07    24   0.592E-03
  94 F= -.56038538E+02 E0= -.56038731E+02  d E =-.169890E-03
 curvature:  -4.74 expect dE=-0.149E-02 dE for cont linesearch -0.339E-06
 trial: gam= 1.09739 g(F)=  0.313E-03 g(S)=  0.000E+00 ort = 0.137E-04 (trialstep = 0.360E+00)
 search vector abs. value=  0.349E-02
 bond charge predicted
       N       E                     dE             d eps       ncg     rms          rms(c)
DAV:   1    -0.559710185446E+02   -0.54419E-04   -0.33782E-02    38   0.137E+00    0.391E-02
RMM:   2    -0.559710621935E+02   -0.43649E-04   -0.65268E-04    36   0.167E-01    0.251E-02
RMM:   3    -0.559710640942E+02   -0.19007E-05   -0.18314E-05    36   0.287E-02    0.124E-02
RMM:   4    -0.559710690516E+02   -0.49574E-05   -0.65530E-06    33   0.154E-02    0.235E-03
RMM:   5    -0.559710697392E+02   -0.68767E-06   -0.28691E-07    24   0.342E-03
  95 F= -.56038635E+02 E0= -.56038828E+02  d E =-.974415E-04
 trial-energy change:   -0.000097  1 .order   -0.000093   -0.000118   -0.000067
 step:   0.6083(harm=  0.8355)  dis= 0.00292  next Energy=   -56.038660 (dE=-0.122E-03)
 bond charge predicted
       N       E                     dE             d eps       ncg     rms          rms(c)
DAV:   1    -0.559710874091E+02   -0.18358E-04   -0.16017E-02    38   0.942E-01    0.269E-02
RMM:   2    -0.559711084242E+02   -0.21015E-04   -0.31115E-04    36   0.115E-01    0.173E-02
RMM:   3    -0.559711095220E+02   -0.10978E-05   -0.86059E-06    32   0.198E-02    0.859E-03
RMM:   4    -0.559711121042E+02   -0.25823E-05   -0.31831E-06    28   0.113E-02    0.161E-03
RMM:   5    -0.559711125120E+02   -0.40781E-06   -0.24042E-07    24   0.347E-03
  96 F= -.56038673E+02 E0= -.56038866E+02  d E =-.134912E-03
 curvature:  -3.43 expect dE=-0.564E-03 dE for cont linesearch -0.790E-05
 ZBRENT: increasing intervall
 opt :   1.1043  next Energy=   -56.038669 (dE=-0.131E-03)
 bond charge predicted
       N       E                     dE             d eps       ncg     rms          rms(c)
DAV:   1    -0.559710244681E+02    0.87636E-04   -0.63959E-02    38   0.188E+00    0.536E-02
RMM:   2    -0.559711079565E+02   -0.83488E-04   -0.12317E-03    36   0.230E-01    0.345E-02
RMM:   3    -0.559711114742E+02   -0.35177E-05   -0.34459E-05    36   0.394E-02    0.171E-02
RMM:   4    -0.559711191085E+02   -0.76343E-05   -0.12329E-05    35   0.210E-02    0.320E-03
RMM:   5    -0.559711193937E+02   -0.28519E-06   -0.46260E-07    24   0.417E-03
  97 F= -.56038669E+02 E0= -.56038862E+02  d E =-.131003E-03
 curvature:   1.58 expect dE= 0.894E-03 dE for cont linesearch  0.569E-05
 ZBRENT: bracketing found
 ZBRENT: interpolating
 opt :   0.8288  next Energy=   -56.038682 (dE=-0.145E-03)
 bond charge predicted
       N       E                     dE             d eps       ncg     rms          rms(c)
DAV:   1    -0.559710984610E+02    0.20647E-04   -0.19653E-02    36   0.104E+00    0.297E-02
RMM:   2    -0.559711248218E+02   -0.26361E-04   -0.37332E-04    36   0.127E-01    0.191E-02
RMM:   3    -0.559711269631E+02   -0.21413E-05   -0.10147E-05    35   0.216E-02    0.949E-03
RMM:   4    -0.559711305992E+02   -0.36361E-05   -0.36819E-06    29   0.119E-02    0.172E-03
RMM:   5    -0.559711308083E+02   -0.20904E-06   -0.21260E-07    24   0.333E-03
  98 F= -.56038686E+02 E0= -.56038879E+02  d E =-.148442E-03
 curvature:  -2.75 expect dE=-0.781E-03 dE for cont linesearch -0.534E-07
 trial: gam= 0.99245 g(F)=  0.284E-03 g(S)=  0.000E+00 ort = 0.824E-05 (trialstep = 0.424E+00)
 search vector abs. value=  0.374E-02
 bond charge predicted
       N       E                     dE             d eps       ncg     rms          rms(c)
DAV:   1    -0.559711581703E+02   -0.27571E-04   -0.45968E-02    40   0.161E+00    0.462E-02
RMM:   2    -0.559712176365E+02   -0.59466E-04   -0.87629E-04    36   0.196E-01    0.297E-02
RMM:   3    -0.559712202799E+02   -0.26434E-05   -0.24717E-05    36   0.335E-02    0.147E-02
RMM:   4    -0.559712255108E+02   -0.52309E-05   -0.89423E-06    34   0.180E-02    0.272E-03
RMM:   5    -0.559712254711E+02    0.39744E-07   -0.32942E-07    24   0.372E-03
  99 F= -.56038770E+02 E0= -.56038963E+02  d E =-.838605E-04
 trial-energy change:   -0.000084  1 .order   -0.000084   -0.000124   -0.000044
 step:   0.6572(harm=  0.6572)  dis= 0.00277  next Energy=   -56.038782 (dE=-0.961E-04)
 bond charge predicted
       N       E                     dE             d eps       ncg     rms          rms(c)
DAV:   1    -0.559712250073E+02    0.50353E-06   -0.13998E-02    38   0.887E-01    0.255E-02
RMM:   2    -0.559712430788E+02   -0.18072E-04   -0.27275E-04    36   0.109E-01    0.165E-02
RMM:   3    -0.559712436309E+02   -0.55213E-06   -0.76933E-06    33   0.187E-02
 100 F= -.56038782E+02 E0= -.56038975E+02  d E =-.960067E-04
 curvature:  -4.20 expect dE=-0.650E-03 dE for cont linesearch -0.385E-06
 trial: gam= 0.47629 g(F)=  0.155E-03 g(S)=  0.000E+00 ort = 0.185E-04 (trialstep = 0.471E+00)
 search vector abs. value=  0.102E-02
 bond charge predicted
       N       E                     dE             d eps       ncg     rms          rms(c)
DAV:   1    -0.559712856667E+02   -0.42588E-04   -0.14172E-02    38   0.898E-01    0.273E-02
RMM:   2    -0.559713023510E+02   -0.16684E-04   -0.26736E-04    36   0.112E-01    0.169E-02
RMM:   3    -0.559713033915E+02   -0.10405E-05   -0.98223E-06    37   0.197E-02    0.786E-03
RMM:   4    -0.559713049528E+02   -0.15614E-05   -0.25004E-06    25   0.986E-03    0.151E-03
RMM:   5    -0.559713051929E+02   -0.24005E-06   -0.25220E-07    24   0.350E-03
 101 F= -.56038836E+02 E0= -.56039030E+02  d E =-.544088E-04
 trial-energy change:   -0.000054  1 .order   -0.000053   -0.000077   -0.000030
 step:   0.7658(harm=  0.7658)  dis= 0.00172  next Energy=   -56.038845 (dE=-0.626E-04)
 bond charge predicted
       N       E                     dE             d eps       ncg     rms          rms(c)
DAV:   1    -0.559713118195E+02   -0.68667E-05   -0.56683E-03    40   0.568E-01    0.171E-02
RMM:   2    -0.559713189078E+02   -0.70883E-05   -0.11070E-04    36   0.720E-02    0.107E-02
RMM:   3    -0.559713192066E+02   -0.29882E-06   -0.34809E-06    28   0.126E-02
 102 F= -.56038846E+02 E0= -.56039039E+02  d E =-.638800E-04
 curvature:  -2.39 expect dE=-0.590E-03 dE for cont linesearch -0.659E-07
 trial: gam= 1.62450 g(F)=  0.247E-03 g(S)=  0.000E+00 ort = 0.530E-05 (trialstep = 0.183E+00)
 search vector abs. value=  0.296E-02
 bond charge predicted
       N       E                     dE             d eps       ncg     rms          rms(c)
DAV:   1    -0.559713593213E+02   -0.40414E-04   -0.51443E-03    40   0.549E-01    0.165E-02
RMM:   2    -0.559713652885E+02   -0.59672E-05   -0.92840E-05    36   0.649E-02    0.108E-02
RMM:   3    -0.559713660337E+02   -0.74524E-06   -0.31875E-06    28   0.119E-02
 103 F= -.56038885E+02 E0= -.56039078E+02  d E =-.388843E-04
 trial-energy change:   -0.000039  1 .order   -0.000039   -0.000047   -0.000030
 step:   0.5239(harm=  0.5239)  dis= 0.00177  next Energy=   -56.038913 (dE=-0.669E-04)
 bond charge predicted
       N       E                     dE             d eps       ncg     rms          rms(c)
DAV:   1    -0.559713848713E+02   -0.19583E-04   -0.18059E-02    38   0.103E+00    0.309E-02
RMM:   2    -0.559714061094E+02   -0.21238E-04   -0.33283E-04    36   0.123E-01    0.203E-02
RMM:   3    -0.559714075586E+02   -0.14492E-05   -0.11995E-05    36   0.225E-02    0.942E-03
RMM:   4    -0.559714095005E+02   -0.19420E-05   -0.28844E-06    28   0.103E-02    0.169E-03
RMM:   5    -0.559714098040E+02   -0.30350E-06   -0.21250E-07    24   0.317E-03
 104 F= -.56038914E+02 E0= -.56039107E+02  d E =-.677047E-04
 curvature:  -3.04 expect dE=-0.955E-03 dE for cont linesearch -0.693E-09
 trial: gam= 1.26374 g(F)=  0.315E-03 g(S)=  0.000E+00 ort =-0.822E-06 (trialstep = 0.147E+00)
 search vector abs. value=  0.504E-02
 bond charge predicted
       N       E                     dE             d eps       ncg     rms          rms(c)
DAV:   1    -0.559714433175E+02   -0.33817E-04   -0.55946E-03    38   0.573E-01    0.175E-02
RMM:   2    -0.559714504375E+02   -0.71200E-05   -0.10786E-04    36   0.708E-02    0.107E-02
RMM:   3    -0.559714514134E+02   -0.97587E-06   -0.33879E-06    27   0.127E-02
 105 F= -.56038952E+02 E0= -.56039145E+02  d E =-.384359E-04
 trial-energy change:   -0.000038  1 .order   -0.000038   -0.000046   -0.000029
 step:   0.4063(harm=  0.4063)  dis= 0.00171  next Energy=   -56.038977 (dE=-0.637E-04)
 bond charge predicted
       N       E                     dE             d eps       ncg     rms          rms(c)
DAV:   1    -0.559714585395E+02   -0.81019E-05   -0.17093E-02    38   0.100E+00    0.307E-02
RMM:   2    -0.559714793871E+02   -0.20848E-04   -0.32202E-04    36   0.122E-01    0.187E-02
RMM:   3    -0.559714819884E+02   -0.26013E-05   -0.11759E-05    37   0.218E-02    0.859E-03
RMM:   4    -0.559714838114E+02   -0.18230E-05   -0.23128E-06    25   0.996E-03    0.151E-03
RMM:   5    -0.559714840310E+02   -0.21953E-06   -0.25775E-07    24   0.357E-03
 106 F= -.56038979E+02 E0= -.56039172E+02  d E =-.653585E-04
 curvature:  -3.26 expect dE=-0.274E-03 dE for cont linesearch -0.343E-09
 trial: gam= 0.23540 g(F)=  0.840E-04 g(S)=  0.000E+00 ort = 0.728E-06 (trialstep = 0.199E+00)
 search vector abs. value=  0.363E-03
 bond charge predicted
       N       E                     dE             d eps       ncg     rms          rms(c)
DAV:   1    -0.559714983766E+02   -0.14565E-04   -0.76968E-04    46   0.214E-01    0.647E-03
RMM:   2    -0.559714991620E+02   -0.78534E-06   -0.10575E-05    33   0.236E-02    0.384E-03
RMM:   3    -0.559714995386E+02   -0.37662E-06   -0.48414E-07    24   0.503E-03
 107 F= -.56038994E+02 E0= -.56039188E+02  d E =-.152177E-04
 trial-energy change:   -0.000015  1 .order   -0.000014   -0.000017   -0.000012
 step:   0.7296(harm=  0.7296)  dis= 0.00103  next Energy=   -56.039010 (dE=-0.307E-04)
 bond charge predicted
       N       E                     dE             d eps       ncg     rms          rms(c)
DAV:   1    -0.559715084096E+02   -0.92476E-05   -0.54030E-03    40   0.567E-01    0.170E-02
RMM:   2    -0.559715144675E+02   -0.60579E-05   -0.90297E-05    36   0.669E-02    0.103E-02
RMM:   3    -0.559715152246E+02   -0.75714E-06   -0.38195E-06    31   0.126E-02
 108 F= -.56039009E+02 E0= -.56039202E+02  d E =-.301121E-04
 curvature:  -1.58 expect dE=-0.915E-04 dE for cont linesearch -0.659E-07
 trial: gam= 0.73384 g(F)=  0.581E-04 g(S)=  0.000E+00 ort =-0.390E-05 (trialstep = 0.305E+00)
 search vector abs. value=  0.248E-03
 bond charge predicted
       N       E                     dE             d eps       ncg     rms          rms(c)
DAV:   1    -0.559715302926E+02   -0.15825E-04   -0.12807E-03    48   0.279E-01    0.910E-03
RMM:   2    -0.559715309831E+02   -0.69047E-06   -0.17026E-05    36   0.298E-02    0.555E-03
RMM:   3    -0.559715312428E+02   -0.25971E-06   -0.96542E-07    24   0.665E-03
 109 F= -.56039021E+02 E0= -.56039215E+02  d E =-.122417E-04
 trial-energy change:   -0.000012  1 .order   -0.000012   -0.000017   -0.000006
 step:   0.4820(harm=  0.4820)  dis= 0.00063  next Energy=   -56.039022 (dE=-0.133E-04)
 bond charge predicted
       N       E                     dE             d eps       ncg     rms          rms(c)
DAV:   1    -0.559715347411E+02   -0.37580E-05   -0.42731E-04    46   0.161E-01    0.519E-03
RMM:   2    -0.559715350323E+02   -0.29119E-06   -0.55486E-06    31   0.172E-02
 110 F= -.56039023E+02 E0= -.56039216E+02  d E =-.138414E-04
 curvature:  -1.08 expect dE=-0.378E-04 dE for cont linesearch -0.214E-07
 trial: gam= 0.54618 g(F)=  0.349E-04 g(S)=  0.000E+00 ort =-0.221E-05 (trialstep = 0.341E+00)
 search vector abs. value=  0.107E-03
 bond charge predicted
       N       E                     dE             d eps       ncg     rms          rms(c)
DAV:   1    -0.559715404655E+02   -0.57244E-05   -0.93832E-04    38   0.235E-01    0.914E-03
RMM:   2    -0.559715419312E+02   -0.14657E-05   -0.24986E-05    35   0.337E-02    0.509E-03
RMM:   3    -0.559715420487E+02   -0.11745E-06   -0.98669E-07    24   0.643E-03
 111 F= -.56039029E+02 E0= -.56039223E+02  d E =-.632413E-05
 trial-energy change:   -0.000006  1 .order   -0.000006   -0.000011   -0.000001
 step:   0.3646(harm=  0.3646)  dis= 0.00032  next Energy=   -56.039029 (dE=-0.615E-05)
 bond charge predicted
       N       E                     dE             d eps       ncg     rms          rms(c)
DAV:   1    -0.559715424219E+02   -0.49072E-06   -0.39830E-06    40   0.153E-02    0.122E-03
RMM:   2    -0.559715424542E+02   -0.32247E-07   -0.85174E-08    19   0.214E-03
 112 F= -.56039030E+02 E0= -.56039223E+02  d E =-.668066E-05
 curvature:  -0.58 expect dE=-0.169E-04 dE for cont linesearch -0.105E-07
 trial: gam= 0.84853 g(F)=  0.294E-04 g(S)=  0.000E+00 ort =-0.139E-05 (trialstep = 0.345E+00)
 search vector abs. value=  0.104E-03
 bond charge predicted
       N       E                     dE             d eps       ncg     rms          rms(c)
DAV:   1    -0.559715506493E+02   -0.82273E-05   -0.48224E-04    40   0.173E-01    0.600E-03
RMM:   2    -0.559715513100E+02   -0.66078E-06   -0.98026E-06    33   0.221E-02
 113 F= -.56039036E+02 E0= -.56039230E+02  d E =-.670488E-05
 trial-energy change:   -0.000007  1 .order   -0.000006   -0.000010   -0.000003
 step:   0.4896(harm=  0.4896)  dis= 0.00045  next Energy=   -56.039037 (dE=-0.691E-05)
 reached required accuracy - stopping structural energy minimisation
