  10  10   0   0
  0.8000000E+03  0.2000000E-08  0.2000000E-08  0.2000000E-08  0.5000000E-15
  1.000000000000000E-004
  CAR 
 unknown system                          
      1.56945208    -27.23903506  301     -5.61832381      1.00000000
    -27.239  0.0000E+00  0.0000E+00
    -27.143  0.0000E+00  0.0000E+00
    -27.047  0.0000E+00  0.0000E+00
    -26.951  0.0000E+00  0.0000E+00
    -26.855  0.0000E+00  0.0000E+00
    -26.759  0.0000E+00  0.0000E+00
    -26.663  0.0000E+00  0.0000E+00
    -26.567  0.0000E+00  0.0000E+00
    -26.471  0.0000E+00  0.0000E+00
    -26.375  0.0000E+00  0.0000E+00
    -26.279  0.0000E+00  0.0000E+00
    -26.183  0.0000E+00  0.0000E+00
    -26.087 -0.2678-107 -0.2572-108
    -25.991 -0.1087E-16 -0.1044E-17
    -25.895  0.1041E+00  0.1000E-01
    -25.799  0.0000E+00  0.1000E-01
    -25.703  0.0000E+00  0.1000E-01
    -25.607  0.0000E+00  0.1000E-01
    -25.511  0.0000E+00  0.1000E-01
    -25.414  0.0000E+00  0.1000E-01
    -25.318  0.0000E+00  0.1000E-01
    -25.222  0.0000E+00  0.1000E-01
    -25.126  0.0000E+00  0.1000E-01
    -25.030  0.0000E+00  0.1000E-01
    -24.934  0.0000E+00  0.1000E-01
    -24.838  0.0000E+00  0.1000E-01
    -24.742  0.0000E+00  0.1000E-01
    -24.646  0.0000E+00  0.1000E-01
    -24.550  0.0000E+00  0.1000E-01
    -24.454  0.0000E+00  0.1000E-01
    -24.358  0.0000E+00  0.1000E-01
    -24.262  0.0000E+00  0.1000E-01
    -24.166  0.0000E+00  0.1000E-01
    -24.070  0.0000E+00  0.1000E-01
    -23.974  0.0000E+00  0.1000E-01
    -23.878  0.0000E+00  0.1000E-01
    -23.782  0.0000E+00  0.1000E-01
    -23.686  0.0000E+00  0.1000E-01
    -23.590  0.0000E+00  0.1000E-01
    -23.494  0.0000E+00  0.1000E-01
    -23.398  0.0000E+00  0.1000E-01
    -23.302  0.0000E+00  0.1000E-01
    -23.206  0.0000E+00  0.1000E-01
    -23.110  0.0000E+00  0.1000E-01
    -23.014  0.0000E+00  0.1000E-01
    -22.918  0.0000E+00  0.1000E-01
    -22.822  0.0000E+00  0.1000E-01
    -22.726  0.0000E+00  0.1000E-01
    -22.630  0.0000E+00  0.1000E-01
    -22.534  0.0000E+00  0.1000E-01
    -22.438  0.0000E+00  0.1000E-01
    -22.342  0.0000E+00  0.1000E-01
    -22.246  0.0000E+00  0.1000E-01
    -22.150  0.0000E+00  0.1000E-01
    -22.054  0.0000E+00  0.1000E-01
    -21.957  0.0000E+00  0.1000E-01
    -21.861  0.0000E+00  0.1000E-01
    -21.765  0.0000E+00  0.1000E-01
    -21.669  0.0000E+00  0.1000E-01
    -21.573  0.0000E+00  0.1000E-01
    -21.477  0.0000E+00  0.1000E-01
    -21.381  0.0000E+00  0.1000E-01
    -21.285  0.0000E+00  0.1000E-01
    -21.189  0.0000E+00  0.1000E-01
    -21.093  0.0000E+00  0.1000E-01
    -20.997  0.0000E+00  0.1000E-01
    -20.901  0.0000E+00  0.1000E-01
    -20.805  0.0000E+00  0.1000E-01
    -20.709  0.0000E+00  0.1000E-01
    -20.613  0.0000E+00  0.1000E-01
    -20.517  0.0000E+00  0.1000E-01
    -20.421  0.0000E+00  0.1000E-01
    -20.325  0.0000E+00  0.1000E-01
    -20.229  0.0000E+00  0.1000E-01
    -20.133  0.0000E+00  0.1000E-01
    -20.037  0.0000E+00  0.1000E-01
    -19.941  0.0000E+00  0.1000E-01
    -19.845  0.0000E+00  0.1000E-01
    -19.749  0.0000E+00  0.1000E-01
    -19.653  0.0000E+00  0.1000E-01
    -19.557  0.0000E+00  0.1000E-01
    -19.461  0.0000E+00  0.1000E-01
    -19.365  0.0000E+00  0.1000E-01
    -19.269 -0.2722-134  0.1000E-01
    -19.173 -0.5103E-28  0.1000E-01
    -19.077  0.1064E+00  0.2022E-01
    -18.981  0.0000E+00  0.2000E-01
    -18.885  0.0000E+00  0.2000E-01
    -18.789  0.0000E+00  0.2000E-01
    -18.693  0.0000E+00  0.2000E-01
    -18.596  0.0000E+00  0.2000E-01
    -18.500  0.0000E+00  0.2000E-01
    -18.404  0.0000E+00  0.2000E-01
    -18.308  0.0000E+00  0.2000E-01
    -18.212  0.0000E+00  0.2000E-01
    -18.116  0.0000E+00  0.2000E-01
    -18.020  0.0000E+00  0.2000E-01
    -17.924  0.0000E+00  0.2000E-01
    -17.828  0.0000E+00  0.2000E-01
    -17.732  0.0000E+00  0.2000E-01
    -17.636 -0.2047E-31  0.2000E-01
    -17.540  0.1077E+00  0.3034E-01
    -17.444  0.0000E+00  0.3000E-01
    -17.348  0.0000E+00  0.3000E-01
    -17.252  0.0000E+00  0.3000E-01
    -17.156  0.0000E+00  0.3000E-01
    -17.060  0.0000E+00  0.3000E-01
    -16.964  0.0000E+00  0.3000E-01
    -16.868  0.0000E+00  0.3000E-01
    -16.772  0.0000E+00  0.3000E-01
    -16.676  0.0000E+00  0.3000E-01
    -16.580  0.0000E+00  0.3000E-01
    -16.484  0.0000E+00  0.3000E-01
    -16.388  0.0000E+00  0.3000E-01
    -16.292  0.0000E+00  0.3000E-01
    -16.196  0.0000E+00  0.3000E-01
    -16.100  0.0000E+00  0.3000E-01
    -16.004  0.0000E+00  0.3000E-01
    -15.908  0.0000E+00  0.3000E-01
    -15.812  0.0000E+00  0.3000E-01
    -15.716  0.0000E+00  0.3000E-01
    -15.620  0.0000E+00  0.3000E-01
    -15.524  0.0000E+00  0.3000E-01
    -15.428  0.0000E+00  0.3000E-01
    -15.332  0.0000E+00  0.3000E-01
    -15.235  0.0000E+00  0.3000E-01
    -15.139  0.0000E+00  0.3000E-01
    -15.043  0.0000E+00  0.3000E-01
    -14.947  0.0000E+00  0.3000E-01
    -14.851  0.0000E+00  0.3000E-01
    -14.755  0.0000E+00  0.3000E-01
    -14.659  0.0000E+00  0.3000E-01
    -14.563  0.0000E+00  0.3000E-01
    -14.467  0.0000E+00  0.3000E-01
    -14.371  0.0000E+00  0.3000E-01
    -14.275  0.0000E+00  0.3000E-01
    -14.179  0.0000E+00  0.3000E-01
    -14.083  0.0000E+00  0.3000E-01
    -13.987  0.0000E+00  0.3000E-01
    -13.891  0.0000E+00  0.3000E-01
    -13.795  0.0000E+00  0.3000E-01
    -13.699  0.0000E+00  0.3000E-01
    -13.603  0.0000E+00  0.3000E-01
    -13.507  0.0000E+00  0.3000E-01
    -13.411  0.0000E+00  0.3000E-01
    -13.315  0.0000E+00  0.3000E-01
    -13.219 -0.3023-127  0.3000E-01
    -13.123 -0.6803E-25  0.3000E-01
    -13.027  0.1048E+00  0.4006E-01
    -12.931  0.0000E+00  0.4000E-01
    -12.835  0.0000E+00  0.4000E-01
    -12.739  0.0000E+00  0.4000E-01
    -12.643  0.0000E+00  0.4000E-01
    -12.547  0.0000E+00  0.4000E-01
    -12.451  0.0000E+00  0.4000E-01
    -12.355  0.0000E+00  0.4000E-01
    -12.259  0.0000E+00  0.4000E-01
    -12.163  0.0000E+00  0.4000E-01
    -12.067  0.0000E+00  0.4000E-01
    -11.971  0.0000E+00  0.4000E-01
    -11.875  0.0000E+00  0.4000E-01
    -11.778  0.0000E+00  0.4000E-01
    -11.682  0.0000E+00  0.4000E-01
    -11.586  0.0000E+00  0.4000E-01
    -11.490 -0.3151-125  0.4000E-01
    -11.394 -0.5100E-24  0.4000E-01
    -11.298  0.1045E+00  0.5004E-01
    -11.202  0.8868E-01  0.5852E-01
    -11.106 -0.5534-120  0.6000E-01
    -11.010 -0.8637E-22  0.6000E-01
    -10.914  0.1042E+00  0.7001E-01
    -10.818  0.0000E+00  0.7000E-01
    -10.722  0.0000E+00  0.7000E-01
    -10.626  0.0000E+00  0.7000E-01
    -10.530  0.0000E+00  0.7000E-01
    -10.434  0.0000E+00  0.7000E-01
    -10.338  0.0000E+00  0.7000E-01
    -10.242  0.0000E+00  0.7000E-01
    -10.146  0.0000E+00  0.7000E-01
    -10.050  0.0000E+00  0.7000E-01
     -9.954 -0.6728E-98  0.7000E-01
     -9.858 -0.3156E-13  0.7000E-01
     -9.762  0.1041E+00  0.8000E-01
     -9.666  0.0000E+00  0.8000E-01
     -9.570 -0.1316E-32  0.8000E-01
     -9.474  0.1065E+00  0.9023E-01
     -9.378  0.0000E+00  0.9000E-01
     -9.282 -0.3570E-55  0.9000E-01
     -9.186 -0.2176E-02  0.8979E-01
     -9.090  0.1063E+00  0.1000E+00
     -8.994  0.0000E+00  0.1000E+00
     -8.898  0.0000E+00  0.1000E+00
     -8.802  0.0000E+00  0.1000E+00
     -8.706 -0.8387-122  0.1000E+00
     -8.610 -0.1481E-22  0.1000E+00
     -8.514  0.1043E+00  0.1100E+00
     -8.417  0.0000E+00  0.1100E+00
     -8.321  0.0000E+00  0.1100E+00
     -8.225  0.0000E+00  0.1100E+00
     -8.129  0.0000E+00  0.1100E+00
     -8.033  0.0000E+00  0.1100E+00
     -7.937  0.0000E+00  0.1100E+00
     -7.841  0.0000E+00  0.1100E+00
     -7.745  0.0000E+00  0.1100E+00
     -7.649  0.0000E+00  0.1100E+00
     -7.553  0.0000E+00  0.1100E+00
     -7.457  0.0000E+00  0.1100E+00
     -7.361  0.0000E+00  0.1100E+00
     -7.265  0.0000E+00  0.1100E+00
     -7.169  0.0000E+00  0.1100E+00
     -7.073  0.0000E+00  0.1100E+00
     -6.977  0.0000E+00  0.1100E+00
     -6.881  0.0000E+00  0.1100E+00
     -6.785  0.0000E+00  0.1100E+00
     -6.689  0.0000E+00  0.1100E+00
     -6.593  0.0000E+00  0.1100E+00
     -6.497  0.0000E+00  0.1100E+00
     -6.401  0.0000E+00  0.1100E+00
     -6.305  0.0000E+00  0.1100E+00
     -6.209  0.0000E+00  0.1100E+00
     -6.113  0.0000E+00  0.1100E+00
     -6.017  0.0000E+00  0.1100E+00
     -5.921  0.0000E+00  0.1100E+00
     -5.825  0.0000E+00  0.1100E+00
     -5.729 -0.2148E-45  0.1100E+00
     -5.633  0.8673E-02  0.1108E+00
     -5.537  0.0000E+00  0.1200E+00
     -5.441  0.0000E+00  0.1200E+00
     -5.345  0.0000E+00  0.1200E+00
     -5.249  0.0000E+00  0.1200E+00
     -5.153  0.0000E+00  0.1200E+00
     -5.056  0.0000E+00  0.1200E+00
     -4.960  0.0000E+00  0.1200E+00
     -4.864  0.0000E+00  0.1200E+00
     -4.768  0.0000E+00  0.1200E+00
     -4.672  0.0000E+00  0.1200E+00
     -4.576  0.0000E+00  0.1200E+00
     -4.480  0.0000E+00  0.1200E+00
     -4.384  0.0000E+00  0.1200E+00
     -4.288  0.0000E+00  0.1200E+00
     -4.192  0.0000E+00  0.1200E+00
     -4.096  0.0000E+00  0.1200E+00
     -4.000  0.0000E+00  0.1200E+00
     -3.904  0.0000E+00  0.1200E+00
     -3.808  0.0000E+00  0.1200E+00
     -3.712  0.0000E+00  0.1200E+00
     -3.616  0.0000E+00  0.1200E+00
     -3.520  0.0000E+00  0.1200E+00
     -3.424  0.0000E+00  0.1200E+00
     -3.328  0.0000E+00  0.1200E+00
     -3.232  0.0000E+00  0.1200E+00
     -3.136  0.0000E+00  0.1200E+00
     -3.040  0.0000E+00  0.1200E+00
     -2.944  0.0000E+00  0.1200E+00
     -2.848  0.0000E+00  0.1200E+00
     -2.752  0.0000E+00  0.1200E+00
     -2.656  0.0000E+00  0.1200E+00
     -2.560  0.0000E+00  0.1200E+00
     -2.464  0.0000E+00  0.1200E+00
     -2.368  0.0000E+00  0.1200E+00
     -2.272  0.0000E+00  0.1200E+00
     -2.176  0.0000E+00  0.1200E+00
     -2.080  0.0000E+00  0.1200E+00
     -1.984  0.0000E+00  0.1200E+00
     -1.888 -0.1622-111  0.1200E+00
     -1.792 -0.2449E-18  0.1200E+00
     -1.696  0.1041E+00  0.1300E+00
     -1.599  0.0000E+00  0.1300E+00
     -1.503  0.0000E+00  0.1300E+00
     -1.407  0.0000E+00  0.1300E+00
     -1.311  0.0000E+00  0.1300E+00
     -1.215  0.0000E+00  0.1300E+00
     -1.119  0.0000E+00  0.1300E+00
     -1.023  0.0000E+00  0.1300E+00
     -0.927  0.0000E+00  0.1300E+00
     -0.831 -0.2009E-83  0.1300E+00
     -0.735 -0.1731E-08  0.1300E+00
     -0.639  0.1041E+00  0.1400E+00
     -0.543  0.0000E+00  0.1400E+00
     -0.447  0.0000E+00  0.1400E+00
     -0.351  0.0000E+00  0.1400E+00
     -0.255  0.0000E+00  0.1400E+00
     -0.159  0.0000E+00  0.1400E+00
     -0.063 -0.1246E-42  0.1400E+00
      0.033  0.2889E-01  0.1428E+00
      0.129  0.1041E+00  0.1600E+00
      0.225  0.1041E+00  0.1700E+00
      0.321  0.1041E+00  0.1800E+00
      0.417  0.0000E+00  0.1800E+00
      0.513  0.0000E+00  0.1800E+00
      0.609  0.0000E+00  0.1800E+00
      0.705  0.0000E+00  0.1800E+00
      0.801  0.0000E+00  0.1800E+00
      0.897  0.0000E+00  0.1800E+00
      0.993  0.0000E+00  0.1800E+00
      1.089  0.0000E+00  0.1800E+00
      1.185  0.0000E+00  0.1800E+00
      1.281  0.0000E+00  0.1800E+00
      1.377  0.0000E+00  0.1800E+00
      1.473  0.0000E+00  0.1800E+00
      1.569  0.0000E+00  0.1800E+00
