   10   10  200    1
  0.8000000E+03  0.2000000E-08  0.2000000E-08  0.2000000E-08  0.5000000E-15
  1.000000000000000E-004
  CAR 
 unknown system                          
   24    1   18
 
  0.0000000E+00  0.0000000E+00  0.0000000E+00  0.1000000E+01
   1      -25.929558
   2      -19.092850
   3      -17.551605
   4      -13.047751
   5      -11.320607
   6      -11.206983
   7      -10.940094
   8       -9.803866
   9       -9.483610
  10       -9.169244
  11       -8.538129
  12       -5.626743
  13       -1.727363
  14       -0.692756
  15        0.035740
  16        0.069798
  17        0.184615
  18        0.259975
