<?xml version="1.0" encoding="ISO-8859-1"?>
<modeling>
 <generator>
  <i name="program" type="string">vasp </i>
  <i name="version" type="string">5.3.2  </i>
  <i name="subversion" type="string">13Sep12 (build Oct  1 2014 13:46:58) complex                          parallel </i>
  <i name="platform" type="string">LinuxIFC </i>
  <i name="date" type="string">2015 11 22 </i>
  <i name="time" type="string">18:50:14 </i>
 </generator>
 <incar>
  <i type="int" name="ISTART">     0</i>
  <i type="string" name="PREC">med</i>
  <i type="string" name="ALGO"> Fast</i>
  <i type="int" name="ISPIN">     1</i>
  <i type="int" name="NELM">   400</i>
  <i type="int" name="NELMDL">   -10</i>
  <i type="int" name="IBRION">     2</i>
  <i type="int" name="NFREE">     2</i>
  <i name="EDIFF">      0.00000100</i>
  <i name="EDIFFG">     -0.01000000</i>
  <i type="int" name="NSW">   200</i>
  <i type="int" name="ISIF">     2</i>
  <i type="int" name="ISYM">     0</i>
  <i name="ENCUT">    400.00000000</i>
  <i name="POTIM">      0.50000000</i>
  <i type="string" name="LREAL"> auto</i>
  <v name="ROPT">     -0.00020000     -0.00020000     -0.00020000</v>
  <i type="logical" name="LPLANE"> T  </i>
  <i type="int" name="ISMEAR">     1</i>
  <i name="SIGMA">      0.01000000</i>
  <i type="int" name="NWRITE">     1</i>
  <i type="logical" name="LWAVE"> F  </i>
  <i type="logical" name="LCHARG"> F  </i>
  <i type="logical" name="LVTOT"> F  </i>
  <i type="int" name="NELM">   400</i>
  <i type="int" name="VOSKOWN">     1</i>
 </incar>
 <kpoints>
  <generation param="Monkhorst-Pack">
   <v type="int" name="divisions">       1        1        1 </v>
   <v name="usershift">      0.00000000       0.00000000       0.00000000 </v>
   <v name="genvec1">      1.00000000       0.00000000       0.00000000 </v>
   <v name="genvec2">      0.00000000       1.00000000       0.00000000 </v>
   <v name="genvec3">      0.00000000       0.00000000       1.00000000 </v>
   <v name="shift">      0.00000000       0.00000000       0.00000000 </v>
  </generation>
  <varray name="kpointlist" >
   <v>       0.00000000       0.00000000       0.00000000 </v>
  </varray>
  <varray name="weights" >
   <v>       1.00000000 </v>
  </varray>
 </kpoints>
 <parameters>
  <separator name="general" >
   <i type="string" name="SYSTEM">unknown system</i>
   <i type="logical" name="LCOMPAT"> F  </i>
  </separator>
  <separator name="electronic" >
   <i type="string" name="PREC">med</i>
   <i name="ENMAX">    400.00000000</i>
   <i name="ENAUG">    644.87300000</i>
   <i name="EDIFF">      0.00000100</i>
   <i type="int" name="IALGO">    68</i>
   <i type="int" name="IWAVPR">    11</i>
   <i type="int" name="NBANDS">    18</i>
   <i name="NELECT">     24.00000000</i>
   <i type="int" name="TURBO">     0</i>
   <i type="int" name="IRESTART">     0</i>
   <i type="int" name="NREBOOT">     0</i>
   <i type="int" name="NMIN">     0</i>
   <i name="EREF">      0.00000000</i>
   <separator name="electronic smearing" >
    <i type="int" name="ISMEAR">     1</i>
    <i name="SIGMA">      0.01000000</i>
    <i name="KSPACING">      0.50000000</i>
    <i type="logical" name="KGAMMA"> T  </i>
   </separator>
   <separator name="electronic projectors" >
    <i type="logical" name="LREAL"> T  </i>
    <v name="ROPT">     -0.00020000     -0.00020000     -0.00020000</v>
    <i type="int" name="LMAXPAW">  -100</i>
    <i type="int" name="LMAXMIX">     2</i>
    <i type="logical" name="NLSPLINE"> F  </i>
   </separator>
   <separator name="electronic startup" >
    <i type="int" name="ISTART">     0</i>
    <i type="int" name="ICHARG">     2</i>
    <i type="int" name="INIWAV">     1</i>
   </separator>
   <separator name="electronic spin" >
    <i type="int" name="ISPIN">     1</i>
    <i type="logical" name="LNONCOLLINEAR"> F  </i>
    <v name="MAGMOM">      1.00000000      1.00000000      1.00000000      1.00000000      1.00000000      1.00000000      1.00000000      1.00000000      1.00000000      1.00000000</v>
    <i name="NUPDOWN">     -1.00000000</i>
    <i type="logical" name="LSORBIT"> F  </i>
    <v name="SAXIS">      0.00000000      0.00000000      1.00000000</v>
    <i type="logical" name="LSPIRAL"> F  </i>
    <v name="QSPIRAL">      0.00000000      0.00000000      0.00000000</v>
    <i type="logical" name="LZEROZ"> F  </i>
   </separator>
   <separator name="electronic exchange-correlation" >
    <i type="logical" name="LASPH"> F  </i>
    <i type="logical" name="LMETAGGA"> F  </i>
   </separator>
   <separator name="electronic convergence" >
    <i type="int" name="NELM">   400</i>
    <i type="int" name="NELMDL">   -10</i>
    <i type="int" name="NELMIN">     2</i>
    <i name="ENINI">    400.00000000</i>
    <separator name="electronic convergence detail" >
     <i type="logical" name="LDIAG"> T  </i>
     <i type="logical" name="LSUBROT"> T  </i>
     <i name="WEIMIN">      0.00100000</i>
     <i name="EBREAK">      0.00000001</i>
     <i name="DEPER">      0.30000000</i>
     <i type="int" name="NRMM">     4</i>
     <i name="TIME">      0.40000000</i>
    </separator>
   </separator>
   <separator name="electronic mixer" >
    <i name="AMIX">      0.40000000</i>
    <i name="BMIX">      1.00000000</i>
    <i name="AMIN">      0.10000000</i>
    <i name="AMIX_MAG">      1.60000000</i>
    <i name="BMIX_MAG">      1.00000000</i>
    <separator name="electronic mixer details" >
     <i type="int" name="IMIX">     4</i>
     <i type="int" name="MAXMIX">   -45</i>
     <i name="WC">    100.00000000</i>
     <i type="int" name="INIMIX">     1</i>
     <i type="int" name="MIXPRE">     1</i>
     <i type="int" name="MREMOVE">     5</i>
    </separator>
   </separator>
   <separator name="electronic dipolcorrection" >
    <i type="logical" name="LDIPOL"> F  </i>
    <i type="logical" name="LMONO"> F  </i>
    <i type="int" name="IDIPOL">     0</i>
    <i name="EPSILON">      1.00000000</i>
    <v name="DIPOL">   -100.00000000   -100.00000000   -100.00000000</v>
    <i name="EFIELD">      0.00000000</i>
   </separator>
  </separator>
  <separator name="grids" >
   <i type="int" name="NGX">    98</i>
   <i type="int" name="NGY">    98</i>
   <i type="int" name="NGZ">    98</i>
   <i type="int" name="NGXF">   168</i>
   <i type="int" name="NGYF">   168</i>
   <i type="int" name="NGZF">   168</i>
   <i type="logical" name="ADDGRID"> F  </i>
  </separator>
  <separator name="ionic" >
   <i type="int" name="NSW">   200</i>
   <i type="int" name="IBRION">     2</i>
   <i type="int" name="ISIF">     2</i>
   <i name="PSTRESS">      0.00000000</i>
   <i name="EDIFFG">     -0.01000000</i>
   <i type="int" name="NFREE">     2</i>
   <i name="POTIM">      0.50000000</i>
   <i name="SMASS">     -3.00000000</i>
   <i name="SCALEE">      1.00000000</i>
  </separator>
  <separator name="ionic md" >
   <i name="TEBEG">      0.00010000</i>
   <i name="TEEND">      0.00010000</i>
   <i type="int" name="NBLOCK">     1</i>
   <i type="int" name="KBLOCK">   200</i>
   <i type="int" name="NPACO">   256</i>
   <i name="APACO">     16.00000000</i>
  </separator>
  <separator name="symmetry" >
   <i type="int" name="ISYM">     0</i>
   <i name="SYMPREC">      0.00001000</i>
  </separator>
  <separator name="dos" >
   <i type="logical" name="LORBIT"> F  </i>
   <v name="RWIGS">     -1.00000000     -1.00000000     -1.00000000</v>
   <i type="int" name="NEDOS">   301</i>
   <i name="EMIN">     10.00000000</i>
   <i name="EMAX">    -10.00000000</i>
   <i name="EFERMI">      0.00000000</i>
  </separator>
  <separator name="writing" >
   <i type="int" name="NWRITE">     1</i>
   <i type="logical" name="LWAVE"> F  </i>
   <i type="logical" name="LCHARG"> F  </i>
   <i type="logical" name="LPARD"> F  </i>
   <i type="logical" name="LVTOT"> F  </i>
   <i type="logical" name="LVHAR"> F  </i>
   <i type="logical" name="LELF"> F  </i>
   <i type="logical" name="LOPTICS"> F  </i>
   <v name="STM">      0.00000000      0.00000000      0.00000000      0.00000000      0.00000000      0.00000000      0.00000000</v>
  </separator>
  <separator name="performance" >
   <i type="int" name="NPAR">     1</i>
   <i type="int" name="NSIM">     4</i>
   <i type="int" name="NBLK">    -1</i>
   <i type="logical" name="LPLANE"> T  </i>
   <i type="logical" name="LSCALAPACK"> F  </i>
   <i type="logical" name="LSCAAWARE"> F  </i>
   <i type="logical" name="LSCALU"> F  </i>
   <i type="logical" name="LASYNC"> F  </i>
   <i type="logical" name="LORBITALREAL"> F  </i>
  </separator>
  <separator name="miscellaneous" >
   <i type="int" name="IDIOT">     3</i>
   <i type="logical" name="LMUSIC"> F  </i>
   <v name="POMASS">     16.00000000     12.01100000      1.00000000</v>
   <v name="DARWINR">      0.00000000      0.00000000      0.00000000</v>
   <v name="DARWINV">      1.00000000      1.00000000      1.00000000</v>
   <i type="logical" name="LCORR"> T  </i>
  </separator>
  <i type="logical" name="GGA_COMPAT"> T  </i>
  <i type="logical" name="LBERRY"> F  </i>
  <i type="int" name="ICORELEVEL">     0</i>
  <i type="logical" name="LDAU"> F  </i>
  <i type="int" name="I_CONSTRAINED_M">     0</i>
  <separator name="electronic exchange-correlation" >
   <i type="string" name="GGA">--</i>
   <i type="int" name="VOSKOWN">     1</i>
   <i type="logical" name="LHFCALC"> F  </i>
   <i type="string" name="PRECFOCK"></i>
   <i type="logical" name="LSYMGRAD"> F  </i>
   <i type="logical" name="LHFONE"> F  </i>
   <i type="logical" name="LRHFCALC"> F  </i>
   <i type="logical" name="LTHOMAS"> F  </i>
   <i type="logical" name="LMODELHF"> F  </i>
   <i name="ENCUT4O">     -1.00000000</i>
   <i type="int" name="EXXOEP">     0</i>
   <i type="int" name="FOURORBIT">     0</i>
   <i name="AEXX">      0.00000000</i>
   <i name="HFALPHA">      0.00000000</i>
   <i name="MCALPHA">      0.00000000</i>
   <i name="ALDAX">      1.00000000</i>
   <i name="AGGAX">      1.00000000</i>
   <i name="ALDAC">      1.00000000</i>
   <i name="AGGAC">      1.00000000</i>
   <i type="int" name="NKREDX">     1</i>
   <i type="int" name="NKREDY">     1</i>
   <i type="int" name="NKREDZ">     1</i>
   <i type="logical" name="SHIFTRED"> F  </i>
   <i type="logical" name="ODDONLY"> F  </i>
   <i type="logical" name="EVENONLY"> F  </i>
   <i type="int" name="LMAXFOCK">     0</i>
   <i type="int" name="NMAXFOCKAE">     0</i>
   <i type="logical" name="LFOCKAEDFT"> F  </i>
   <i name="HFSCREEN">      0.00000000</i>
   <i name="HFSCREENC">      0.00000000</i>
   <i type="int" name="NBANDSGWLOW">     0</i>
  </separator>
  <separator name="vdW DFT" >
   <i type="logical" name="LUSE_VDW"> F  </i>
   <i name="Zab_VDW">     -0.84910000</i>
   <i name="PARAM1">      0.12340000</i>
   <i name="PARAM2">      1.00000000</i>
   <i name="PARAM3">      0.00000000</i>
  </separator>
  <separator name="model GW" >
   <i type="int" name="MODEL_GW">     0</i>
   <i name="MODEL_EPS0">    480.00000000</i>
   <i name="MODEL_ALPHA">      1.00000000</i>
  </separator>
  <separator name="linear response parameters" >
   <i type="logical" name="LEPSILON"> F  </i>
   <i type="logical" name="LRPA"> F  </i>
   <i type="logical" name="LNABLA"> F  </i>
   <i type="logical" name="LVEL"> F  </i>
   <i type="int" name="KINTER">     0</i>
   <i name="CSHIFT">      0.10000000</i>
   <i name="OMEGAMAX">     -1.00000000</i>
   <i name="DEG_THRESHOLD">      0.00200000</i>
  </separator>
  <separator name="orbital magnetization" >
   <i type="logical" name="NUCIND"> F  </i>
   <v name="MAGPOS">      0.00000000      0.00000000      0.00000000</v>
   <i type="logical" name="LNICSALL"> T  </i>
   <i type="logical" name="ORBITALMAG"> F  </i>
   <i type="logical" name="LMAGBLOCH"> F  </i>
   <i type="logical" name="LCHIMAG"> F  </i>
   <i type="logical" name="LGAUGE"> T  </i>
   <i type="int" name="MAGATOM">     0</i>
   <v name="MAGDIPOL">      0.00000000      0.00000000      0.00000000</v>
   <v name="AVECCONST">      0.00000000      0.00000000      0.00000000</v>
  </separator>
  <separator name="response functions" >
   <i type="logical" name="LADDER"> F  </i>
   <i type="logical" name="LHARTREE"> T  </i>
   <i type="int" name="IBSE">     0</i>
   <i type="logical" name="LTCTE"> F  </i>
   <i type="logical" name="LTETE"> F  </i>
   <i type="logical" name="LTRIPLET"> F  </i>
   <i type="logical" name="LFXCEPS"> F  </i>
   <i type="logical" name="L2ORDER"> F  </i>
   <i type="logical" name="LUSEW"> F  </i>
   <i name="ENCUTGW">     -2.00000000</i>
   <i name="ENCUTGWSOFT">     -2.00000000</i>
   <i name="ENCUTLF">     -1.00000000</i>
   <i type="int" name="LMAXMP2">    -1</i>
   <i name="SCISSOR">      0.00000000</i>
   <i type="int" name="NOMEGA">     0</i>
   <i type="int" name="NOMEGAR">     0</i>
   <i type="int" name="NBANDSGW">    -1</i>
   <i type="int" name="NBANDSO">    -1</i>
   <i type="int" name="NBANDSV">    -1</i>
   <i type="int" name="NELM">   400</i>
   <i type="int" name="DIM">     3</i>
   <i type="int" name="ANTIRES">     0</i>
   <i name="OMEGAMAX">    -30.00000000</i>
   <i name="OMEGATL">   -200.00000000</i>
   <i type="int" name="OMEGAGRID">     0</i>
   <i name="CSHIFT">     -0.10000000</i>
   <i type="logical" name="SELFENERGY"> F  </i>
   <i type="logical" name="LSPECTRAL"> F  </i>
   <i type="logical" name="ODDONLYGW"> F  </i>
   <i type="logical" name="EVENONLYGW"> F  </i>
   <i type="int" name="NKREDLFX">     1</i>
   <i type="int" name="NKREDLFY">     1</i>
   <i type="int" name="NKREDLFZ">     1</i>
   <i type="int" name="MAXMEM">  1800</i>
   <i type="int" name="TELESCOPE">     0</i>
  </separator>
 </parameters>
 <atominfo>
  <atoms>      10 </atoms>
  <types>       3 </types>
  <array name="atoms" >
   <dimension dim="1">ion</dimension>
   <field type="string">element</field>
   <field type="int">atomtype</field>
   <set>
    <rc><c>O </c><c>   1</c></rc>
    <rc><c>C </c><c>   2</c></rc>
    <rc><c>C </c><c>   2</c></rc>
    <rc><c>C </c><c>   2</c></rc>
    <rc><c>H </c><c>   3</c></rc>
    <rc><c>H </c><c>   3</c></rc>
    <rc><c>H </c><c>   3</c></rc>
    <rc><c>H </c><c>   3</c></rc>
    <rc><c>H </c><c>   3</c></rc>
    <rc><c>H </c><c>   3</c></rc>
   </set>
  </array>
  <array name="atomtypes" >
   <dimension dim="1">type</dimension>
   <field type="int">atomspertype</field>
   <field type="string">element</field>
   <field>mass</field>
   <field>valence</field>
   <field type="string">pseudopotential</field>
   <set>
    <rc><c>   1</c><c>O </c><c>     16.00000000</c><c>      6.00000000</c><c>  PAW_PBE O 08Apr2002                   </c></rc>
    <rc><c>   3</c><c>C </c><c>     12.01100000</c><c>      4.00000000</c><c>  PAW_PBE C 08Apr2002                   </c></rc>
    <rc><c>   6</c><c>H </c><c>      1.00000000</c><c>      1.00000000</c><c>  PAW_PBE H 15Jun2001                   </c></rc>
   </set>
  </array>
 </atominfo>
 <structure name="initialpos" >
  <crystal>
   <varray name="basis" >
    <v>      16.32993162      -8.16496581      -8.16496581 </v>
    <v>       0.00000000      14.14213562     -14.14213562 </v>
    <v>      11.54700538      11.54700538      11.54700538 </v>
   </varray>
   <i name="volume">   8000.00000000 </i>
   <varray name="rec_basis" >
    <v>       0.04082483      -0.02041241      -0.02041241 </v>
    <v>       0.00000000       0.03535534      -0.03535534 </v>
    <v>       0.02886751       0.02886751       0.02886751 </v>
   </varray>
  </crystal>
  <varray name="positions" >
   <v>       0.39704028       0.56594130       0.56835255 </v>
   <v>       0.41326158       0.54290609       0.62277948 </v>
   <v>       0.38593193       0.47687153       0.64776274 </v>
   <v>       0.46195166       0.57878872       0.66836306 </v>
   <v>       0.47529573       0.62762457       0.64737805 </v>
   <v>       0.35301116       0.45445853       0.61012026 </v>
   <v>       0.35799651       0.48450084       0.69464646 </v>
   <v>       0.42717929       0.44230645       0.65959939 </v>
   <v>       0.50751551       0.54837297       0.67448482 </v>
   <v>       0.44049846       0.58505784       0.71869320 </v>
  </varray>
  <varray name="selective"  type="logical" >
   <v type="logical" >  T  T  T </v>
   <v type="logical" >  T  T  T </v>
   <v type="logical" >  T  T  T </v>
   <v type="logical" >  T  T  T </v>
   <v type="logical" >  T  T  T </v>
   <v type="logical" >  T  T  T </v>
   <v type="logical" >  T  T  T </v>
   <v type="logical" >  T  T  T </v>
   <v type="logical" >  T  T  T </v>
   <v type="logical" >  T  T  T </v>
  </varray>
  <nose>
   <v>      -3.00000000       0.00000000       0.00010000       0.00010000 </v>
  </nose>
 </structure>
 <calculation>
  <scstep>
   <time name="dav">    4.57    5.59</time>
   <time name="total">    5.80    7.06</time>
   <energy>
    <i name="alphaZ">      0.29815835 </i>
    <i name="ewald">   1234.25203757 </i>
    <i name="hartreedc">  -1909.59770487 </i>
    <i name="XCdc">     80.32807776 </i>
    <i name="pawpsdc">    684.91978065 </i>
    <i name="pawaedc">   -688.47993544 </i>
    <i name="eentropy">      0.00000000 </i>
    <i name="bandstr">   -188.65993333 </i>
    <i name="atom">    948.51666364 </i>
    <i name="e_fr_energy">    161.57714433 </i>
    <i name="e_wo_entrp">    161.57714433 </i>
    <i name="e_0_energy">    161.57714433 </i>
   </energy>
  </scstep>
  <scstep>
   <time name="dav">    1.19    1.20</time>
   <time name="total">    1.19    1.22</time>
   <energy>
    <i name="e_fr_energy">     30.70783663 </i>
    <i name="e_wo_entrp">     30.70725684 </i>
    <i name="e_0_energy">     30.70764336 </i>
   </energy>
  </scstep>
  <scstep>
   <time name="dav">    0.80    0.81</time>
   <time name="total">    0.80    0.84</time>
   <energy>
    <i name="e_fr_energy">    -35.98764959 </i>
    <i name="e_wo_entrp">    -35.98764959 </i>
    <i name="e_0_energy">    -35.98764959 </i>
   </energy>
  </scstep>
  <scstep>
   <time name="dav">    0.95    0.96</time>
   <time name="total">    0.95    0.98</time>
   <energy>
    <i name="e_fr_energy">    -60.63779770 </i>
    <i name="e_wo_entrp">    -60.63837749 </i>
    <i name="e_0_energy">    -60.63799096 </i>
   </energy>
  </scstep>
  <scstep>
   <time name="dav">    0.94    0.95</time>
   <time name="total">    0.95    0.97</time>
   <energy>
    <i name="e_fr_energy">    -62.16922446 </i>
    <i name="e_wo_entrp">    -62.16922446 </i>
    <i name="e_0_energy">    -62.16922446 </i>
   </energy>
  </scstep>
  <scstep>
   <time name="dav">    1.07    1.08</time>
   <time name="total">    1.07    1.11</time>
   <energy>
    <i name="e_fr_energy">    -62.17357168 </i>
    <i name="e_wo_entrp">    -62.17357168 </i>
    <i name="e_0_energy">    -62.17357168 </i>
   </energy>
  </scstep>
  <scstep>
   <time name="dav">    1.09    1.09</time>
   <time name="total">    1.09    1.11</time>
   <energy>
    <i name="e_fr_energy">    -62.17362605 </i>
    <i name="e_wo_entrp">    -62.17362605 </i>
    <i name="e_0_energy">    -62.17362605 </i>
   </energy>
  </scstep>
  <scstep>
   <time name="dav">    1.07    1.08</time>
   <time name="total">    1.08    1.10</time>
   <energy>
    <i name="e_fr_energy">    -62.17362850 </i>
    <i name="e_wo_entrp">    -62.17362850 </i>
    <i name="e_0_energy">    -62.17362850 </i>
   </energy>
  </scstep>
  <scstep>
   <time name="dav">    1.06    1.06</time>
   <time name="total">    1.06    1.08</time>
   <energy>
    <i name="e_fr_energy">    -62.17362862 </i>
    <i name="e_wo_entrp">    -62.17362862 </i>
    <i name="e_0_energy">    -62.17362862 </i>
   </energy>
  </scstep>
  <scstep>
   <time name="dav">    0.96    0.96</time>
   <time name="total">    1.05    1.07</time>
   <energy>
    <i name="e_fr_energy">    -62.17362863 </i>
    <i name="e_wo_entrp">    -62.17362863 </i>
    <i name="e_0_energy">    -62.17362863 </i>
   </energy>
  </scstep>
  <scstep>
   <time name="diag">    0.10    0.10</time>
   <time name="diis">    0.61    0.61</time>
   <time name="orth">    0.00    0.00</time>
   <time name="total">    1.32    1.35</time>
   <energy>
    <i name="e_fr_energy">    -57.13386123 </i>
    <i name="e_wo_entrp">    -57.13386123 </i>
    <i name="e_0_energy">    -57.13386123 </i>
   </energy>
  </scstep>
  <scstep>
   <time name="diag">    0.10    0.10</time>
   <time name="diis">    0.61    0.61</time>
   <time name="orth">    0.00    0.00</time>
   <time name="total">    1.31    1.33</time>
   <energy>
    <i name="e_fr_energy">    -56.23832685 </i>
    <i name="e_wo_entrp">    -56.23890664 </i>
    <i name="e_0_energy">    -56.23852011 </i>
   </energy>
  </scstep>
  <scstep>
   <time name="diag">    0.09    0.09</time>
   <time name="diis">    0.61    0.61</time>
   <time name="orth">    0.00    0.00</time>
   <time name="total">    1.30    1.32</time>
   <energy>
    <i name="e_fr_energy">    -56.00506541 </i>
    <i name="e_wo_entrp">    -56.00506541 </i>
    <i name="e_0_energy">    -56.00506541 </i>
   </energy>
  </scstep>
  <scstep>
   <time name="diag">    0.10    0.10</time>
   <time name="diis">    0.63    0.63</time>
   <time name="orth">    0.00    0.00</time>
   <time name="total">    1.34    1.36</time>
   <energy>
    <i name="e_fr_energy">    -55.95279572 </i>
    <i name="e_wo_entrp">    -55.95337551 </i>
    <i name="e_0_energy">    -55.95298899 </i>
   </energy>
  </scstep>
  <scstep>
   <time name="diag">    0.10    0.10</time>
   <time name="diis">    0.61    0.61</time>
   <time name="orth">    0.00    0.00</time>
   <time name="total">    1.32    1.34</time>
   <energy>
    <i name="e_fr_energy">    -55.94988538 </i>
    <i name="e_wo_entrp">    -55.94988538 </i>
    <i name="e_0_energy">    -55.94988538 </i>
   </energy>
  </scstep>
  <scstep>
   <time name="diag">    0.09    0.09</time>
   <time name="diis">    0.62    0.62</time>
   <time name="orth">    0.01    0.00</time>
   <time name="total">    1.31    1.33</time>
   <energy>
    <i name="e_fr_energy">    -55.95020273 </i>
    <i name="e_wo_entrp">    -55.95020273 </i>
    <i name="e_0_energy">    -55.95020273 </i>
   </energy>
  </scstep>
  <scstep>
   <time name="diag">    0.09    0.09</time>
   <time name="diis">    0.59    0.60</time>
   <time name="orth">    0.00    0.00</time>
   <time name="total">    1.28    1.31</time>
   <energy>
    <i name="e_fr_energy">    -55.95694630 </i>
    <i name="e_wo_entrp">    -55.95694630 </i>
    <i name="e_0_energy">    -55.95694630 </i>
   </energy>
  </scstep>
  <scstep>
   <time name="diag">    0.10    0.10</time>
   <time name="diis">    0.61    0.61</time>
   <time name="orth">    0.00    0.00</time>
   <time name="total">    1.32    1.35</time>
   <energy>
    <i name="e_fr_energy">    -55.96167651 </i>
    <i name="e_wo_entrp">    -55.96167651 </i>
    <i name="e_0_energy">    -55.96167651 </i>
   </energy>
  </scstep>
  <scstep>
   <time name="diag">    0.09    0.09</time>
   <time name="diis">    0.63    0.63</time>
   <time name="orth">    0.00    0.00</time>
   <time name="total">    1.32    1.37</time>
   <energy>
    <i name="e_fr_energy">    -55.96704356 </i>
    <i name="e_wo_entrp">    -55.96704356 </i>
    <i name="e_0_energy">    -55.96704356 </i>
   </energy>
  </scstep>
  <scstep>
   <time name="diag">    0.09    0.09</time>
   <time name="diis">    0.63    0.63</time>
   <time name="orth">    0.00    0.00</time>
   <time name="total">    1.33    1.35</time>
   <energy>
    <i name="e_fr_energy">    -55.96998129 </i>
    <i name="e_wo_entrp">    -55.96998129 </i>
    <i name="e_0_energy">    -55.96998129 </i>
   </energy>
  </scstep>
  <scstep>
   <time name="diag">    0.09    0.09</time>
   <time name="diis">    0.63    0.63</time>
   <time name="orth">    0.00    0.00</time>
   <time name="total">    1.32    1.35</time>
   <energy>
    <i name="e_fr_energy">    -55.97107337 </i>
    <i name="e_wo_entrp">    -55.97107337 </i>
    <i name="e_0_energy">    -55.97107337 </i>
   </energy>
  </scstep>
  <scstep>
   <time name="diag">    0.09    0.09</time>
   <time name="diis">    0.61    0.62</time>
   <time name="orth">    0.00    0.01</time>
   <time name="total">    1.32    1.34</time>
   <energy>
    <i name="e_fr_energy">    -55.97104639 </i>
    <i name="e_wo_entrp">    -55.97162618 </i>
    <i name="e_0_energy">    -55.97123966 </i>
   </energy>
  </scstep>
  <scstep>
   <time name="diag">    0.09    0.09</time>
   <time name="diis">    0.58    0.58</time>
   <time name="orth">    0.00    0.00</time>
   <time name="total">    1.28    1.31</time>
   <energy>
    <i name="e_fr_energy">    -55.97131556 </i>
    <i name="e_wo_entrp">    -55.97189535 </i>
    <i name="e_0_energy">    -55.97150882 </i>
   </energy>
  </scstep>
  <scstep>
   <time name="diag">    0.10    0.10</time>
   <time name="diis">    0.53    0.53</time>
   <time name="orth">    0.00    0.00</time>
   <time name="total">    1.25    1.28</time>
   <energy>
    <i name="e_fr_energy">    -55.97148888 </i>
    <i name="e_wo_entrp">    -55.97206867 </i>
    <i name="e_0_energy">    -55.97168214 </i>
   </energy>
  </scstep>
  <scstep>
   <time name="diag">    0.09    0.09</time>
   <time name="diis">    0.42    0.42</time>
   <time name="orth">    0.00    0.00</time>
   <time name="total">    1.12    1.15</time>
   <energy>
    <i name="e_fr_energy">    -55.97151091 </i>
    <i name="e_wo_entrp">    -55.97209070 </i>
    <i name="e_0_energy">    -55.97170417 </i>
   </energy>
  </scstep>
  <scstep>
   <time name="diag">    0.09    0.09</time>
   <time name="diis">    0.42    0.42</time>
   <time name="orth">    0.00    0.01</time>
   <time name="total">    1.10    1.18</time>
   <energy>
    <i name="e_fr_energy">    -55.97154321 </i>
    <i name="e_wo_entrp">    -55.97212300 </i>
    <i name="e_0_energy">    -55.97173647 </i>
   </energy>
  </scstep>
  <scstep>
   <time name="diag">    0.09    0.09</time>
   <time name="diis">    0.39    0.39</time>
   <time name="orth">    0.01    0.00</time>
   <time name="total">    1.10    1.12</time>
   <energy>
    <i name="e_fr_energy">    -55.97154502 </i>
    <i name="e_wo_entrp">    -55.97212481 </i>
    <i name="e_0_energy">    -55.97173828 </i>
   </energy>
  </scstep>
  <scstep>
   <time name="diag">    0.09    0.09</time>
   <time name="diis">    0.41    0.41</time>
   <time name="orth">    0.00    0.00</time>
   <time name="total">    1.12    1.15</time>
   <energy>
    <i name="e_fr_energy">    -55.97154906 </i>
    <i name="e_wo_entrp">    -55.97212885 </i>
    <i name="e_0_energy">    -55.97174233 </i>
   </energy>
  </scstep>
  <scstep>
   <time name="diag">    0.09    0.09</time>
   <time name="diis">    0.34    0.34</time>
   <time name="orth">    0.00    0.00</time>
   <time name="total">    0.93    0.96</time>
   <energy>
    <i name="alphaZ">      0.29815835 </i>
    <i name="ewald">   1234.25203757 </i>
    <i name="hartreedc">  -2017.39920504 </i>
    <i name="XCdc">     85.87121530 </i>
    <i name="pawpsdc">   1830.74371902 </i>
    <i name="pawaedc">  -1834.83264234 </i>
    <i name="eentropy">      0.00057979 </i>
    <i name="bandstr">   -303.42207605 </i>
    <i name="atom">    948.51666364 </i>
    <i name="e_fr_energy">    -55.97154975 </i>
    <i name="e_wo_entrp">    -55.97212954 </i>
    <i name="e_0_energy">    -55.97174302 </i>
   </energy>
  </scstep>
  <structure>
   <crystal>
    <varray name="basis" >
     <v>      16.32993162      -8.16496581      -8.16496581 </v>
     <v>       0.00000000      14.14213562     -14.14213562 </v>
     <v>      11.54700538      11.54700538      11.54700538 </v>
    </varray>
    <i name="volume">   8000.00000000 </i>
    <varray name="rec_basis" >
     <v>       0.04082483      -0.02041241      -0.02041241 </v>
     <v>       0.00000000       0.03535534      -0.03535534 </v>
     <v>       0.02886751       0.02886751       0.02886751 </v>
    </varray>
   </crystal>
   <varray name="positions" >
    <v>       0.39704028       0.56594130       0.56835255 </v>
    <v>       0.41326158       0.54290609       0.62277948 </v>
    <v>       0.38593193       0.47687153       0.64776274 </v>
    <v>       0.46195166       0.57878872       0.66836306 </v>
    <v>       0.47529573       0.62762457       0.64737805 </v>
    <v>       0.35301116       0.45445853       0.61012026 </v>
    <v>       0.35799651       0.48450084       0.69464646 </v>
    <v>       0.42717929       0.44230645       0.65959939 </v>
    <v>       0.50751551       0.54837297       0.67448482 </v>
    <v>       0.44049846       0.58505784       0.71869320 </v>
   </varray>
  </structure>
  <varray name="forces" >
   <v>      -0.00144258      -0.00209469      -0.00220450 </v>
   <v>       0.00575924      -0.00378887      -0.00198507 </v>
   <v>       0.00368242      -0.00213402       0.00859153 </v>
   <v>       0.00143076       0.00115246      -0.00278822 </v>
   <v>      -0.00355394      -0.00201145       0.00108628 </v>
   <v>       0.00193539      -0.00031278      -0.00133117 </v>
   <v>       0.00044458      -0.00047717      -0.00200188 </v>
   <v>      -0.00328877       0.00403421       0.00181350 </v>
   <v>      -0.00401097       0.00222195      -0.00113257 </v>
   <v>      -0.00095612       0.00341036      -0.00004791 </v>
  </varray>
  <varray name="stress" >
   <v>      -0.27011397      -0.00808065       0.02393317 </v>
   <v>      -0.00808065      -0.27582830       0.01179093 </v>
   <v>       0.02393317       0.01179093      -0.27355875 </v>
  </varray>
  <energy>
   <i name="e_fr_energy">    -56.03903480 </i>
   <i name="e_wo_entrp">    -56.03922807 </i>
   <i name="e_0_energy">      0.00057979 </i>
  </energy>
  <time name="totalsc">   40.63   42.79</time>
  <eigenvalues>
   <array>
    <dimension dim="1">band</dimension>
    <dimension dim="2">kpoint</dimension>
    <dimension dim="3">spin</dimension>
    <field>eigene</field>
    <field>occ</field>
    <set>
     <set comment="spin 1">
      <set comment="kpoint 1">
       <r>  -25.9296    1.0000 </r>
       <r>  -19.0928    1.0000 </r>
       <r>  -17.5516    1.0000 </r>
       <r>  -13.0478    1.0000 </r>
       <r>  -11.3206    1.0000 </r>
       <r>  -11.2070    1.0000 </r>
       <r>  -10.9401    1.0000 </r>
       <r>   -9.8039    1.0000 </r>
       <r>   -9.4836    1.0000 </r>
       <r>   -9.1692    1.0000 </r>
       <r>   -8.5381    1.0000 </r>
       <r>   -5.6267    1.0000 </r>
       <r>   -1.7274    0.0000 </r>
       <r>   -0.6928    0.0000 </r>
       <r>    0.0357    0.0000 </r>
       <r>    0.0698    0.0000 </r>
       <r>    0.1846    0.0000 </r>
       <r>    0.2600    0.0000 </r>
      </set>
     </set>
    </set>
   </array>
  </eigenvalues>
  <separator name="orbital magnetization" >
   <v name="MAGDIPOLOUT">      0.00000000      0.00000000      0.00000000</v>
  </separator>
  <dos>
   <i name="efermi">     -5.61832381 </i>
   <total>
    <array>
     <dimension dim="1">gridpoints</dimension>
     <dimension dim="2">spin</dimension>
     <field>energy</field>
     <field>total</field>
     <field>integrated</field>
     <set>
      <set comment="spin 1">
       <r>   -27.2390     0.0000     0.0000 </r>
       <r>   -27.1430     0.0000     0.0000 </r>
       <r>   -27.0470     0.0000     0.0000 </r>
       <r>   -26.9510     0.0000     0.0000 </r>
       <r>   -26.8549     0.0000     0.0000 </r>
       <r>   -26.7589     0.0000     0.0000 </r>
       <r>   -26.6629     0.0000     0.0000 </r>
       <r>   -26.5668     0.0000     0.0000 </r>
       <r>   -26.4708     0.0000     0.0000 </r>
       <r>   -26.3748     0.0000     0.0000 </r>
       <r>   -26.2788     0.0000     0.0000 </r>
       <r>   -26.1827     0.0000     0.0000 </r>
       <r>   -26.0867    -0.0000    -0.0000 </r>
       <r>   -25.9907    -0.0000    -0.0000 </r>
       <r>   -25.8946    20.8273     2.0000 </r>
       <r>   -25.7986     0.0000     2.0000 </r>
       <r>   -25.7026     0.0000     2.0000 </r>
       <r>   -25.6066     0.0000     2.0000 </r>
       <r>   -25.5105     0.0000     2.0000 </r>
       <r>   -25.4145     0.0000     2.0000 </r>
       <r>   -25.3185     0.0000     2.0000 </r>
       <r>   -25.2224     0.0000     2.0000 </r>
       <r>   -25.1264     0.0000     2.0000 </r>
       <r>   -25.0304     0.0000     2.0000 </r>
       <r>   -24.9344     0.0000     2.0000 </r>
       <r>   -24.8383     0.0000     2.0000 </r>
       <r>   -24.7423     0.0000     2.0000 </r>
       <r>   -24.6463     0.0000     2.0000 </r>
       <r>   -24.5502     0.0000     2.0000 </r>
       <r>   -24.4542     0.0000     2.0000 </r>
       <r>   -24.3582     0.0000     2.0000 </r>
       <r>   -24.2622     0.0000     2.0000 </r>
       <r>   -24.1661     0.0000     2.0000 </r>
       <r>   -24.0701     0.0000     2.0000 </r>
       <r>   -23.9741     0.0000     2.0000 </r>
       <r>   -23.8780     0.0000     2.0000 </r>
       <r>   -23.7820     0.0000     2.0000 </r>
       <r>   -23.6860     0.0000     2.0000 </r>
       <r>   -23.5900     0.0000     2.0000 </r>
       <r>   -23.4939     0.0000     2.0000 </r>
       <r>   -23.3979     0.0000     2.0000 </r>
       <r>   -23.3019     0.0000     2.0000 </r>
       <r>   -23.2058     0.0000     2.0000 </r>
       <r>   -23.1098     0.0000     2.0000 </r>
       <r>   -23.0138     0.0000     2.0000 </r>
       <r>   -22.9178     0.0000     2.0000 </r>
       <r>   -22.8217     0.0000     2.0000 </r>
       <r>   -22.7257     0.0000     2.0000 </r>
       <r>   -22.6297     0.0000     2.0000 </r>
       <r>   -22.5336     0.0000     2.0000 </r>
       <r>   -22.4376     0.0000     2.0000 </r>
       <r>   -22.3416     0.0000     2.0000 </r>
       <r>   -22.2456     0.0000     2.0000 </r>
       <r>   -22.1495     0.0000     2.0000 </r>
       <r>   -22.0535     0.0000     2.0000 </r>
       <r>   -21.9575     0.0000     2.0000 </r>
       <r>   -21.8615     0.0000     2.0000 </r>
       <r>   -21.7654     0.0000     2.0000 </r>
       <r>   -21.6694     0.0000     2.0000 </r>
       <r>   -21.5734     0.0000     2.0000 </r>
       <r>   -21.4773     0.0000     2.0000 </r>
       <r>   -21.3813     0.0000     2.0000 </r>
       <r>   -21.2853     0.0000     2.0000 </r>
       <r>   -21.1893     0.0000     2.0000 </r>
       <r>   -21.0932     0.0000     2.0000 </r>
       <r>   -20.9972     0.0000     2.0000 </r>
       <r>   -20.9012     0.0000     2.0000 </r>
       <r>   -20.8051     0.0000     2.0000 </r>
       <r>   -20.7091     0.0000     2.0000 </r>
       <r>   -20.6131     0.0000     2.0000 </r>
       <r>   -20.5171     0.0000     2.0000 </r>
       <r>   -20.4210     0.0000     2.0000 </r>
       <r>   -20.3250     0.0000     2.0000 </r>
       <r>   -20.2290     0.0000     2.0000 </r>
       <r>   -20.1329     0.0000     2.0000 </r>
       <r>   -20.0369     0.0000     2.0000 </r>
       <r>   -19.9409     0.0000     2.0000 </r>
       <r>   -19.8449     0.0000     2.0000 </r>
       <r>   -19.7488     0.0000     2.0000 </r>
       <r>   -19.6528     0.0000     2.0000 </r>
       <r>   -19.5568     0.0000     2.0000 </r>
       <r>   -19.4607     0.0000     2.0000 </r>
       <r>   -19.3647     0.0000     2.0000 </r>
       <r>   -19.2687    -0.0000     2.0000 </r>
       <r>   -19.1727    -0.0000     2.0000 </r>
       <r>   -19.0766    21.2865     4.0441 </r>
       <r>   -18.9806     0.0000     4.0000 </r>
       <r>   -18.8846     0.0000     4.0000 </r>
       <r>   -18.7885     0.0000     4.0000 </r>
       <r>   -18.6925     0.0000     4.0000 </r>
       <r>   -18.5965     0.0000     4.0000 </r>
       <r>   -18.5005     0.0000     4.0000 </r>
       <r>   -18.4044     0.0000     4.0000 </r>
       <r>   -18.3084     0.0000     4.0000 </r>
       <r>   -18.2124     0.0000     4.0000 </r>
       <r>   -18.1163     0.0000     4.0000 </r>
       <r>   -18.0203     0.0000     4.0000 </r>
       <r>   -17.9243     0.0000     4.0000 </r>
       <r>   -17.8283     0.0000     4.0000 </r>
       <r>   -17.7322     0.0000     4.0000 </r>
       <r>   -17.6362    -0.0000     4.0000 </r>
       <r>   -17.5402    21.5416     6.0686 </r>
       <r>   -17.4441     0.0000     6.0000 </r>
       <r>   -17.3481     0.0000     6.0000 </r>
       <r>   -17.2521     0.0000     6.0000 </r>
       <r>   -17.1561     0.0000     6.0000 </r>
       <r>   -17.0600     0.0000     6.0000 </r>
       <r>   -16.9640     0.0000     6.0000 </r>
       <r>   -16.8680     0.0000     6.0000 </r>
       <r>   -16.7720     0.0000     6.0000 </r>
       <r>   -16.6759     0.0000     6.0000 </r>
       <r>   -16.5799     0.0000     6.0000 </r>
       <r>   -16.4839     0.0000     6.0000 </r>
       <r>   -16.3878     0.0000     6.0000 </r>
       <r>   -16.2918     0.0000     6.0000 </r>
       <r>   -16.1958     0.0000     6.0000 </r>
       <r>   -16.0998     0.0000     6.0000 </r>
       <r>   -16.0037     0.0000     6.0000 </r>
       <r>   -15.9077     0.0000     6.0000 </r>
       <r>   -15.8117     0.0000     6.0000 </r>
       <r>   -15.7156     0.0000     6.0000 </r>
       <r>   -15.6196     0.0000     6.0000 </r>
       <r>   -15.5236     0.0000     6.0000 </r>
       <r>   -15.4276     0.0000     6.0000 </r>
       <r>   -15.3315     0.0000     6.0000 </r>
       <r>   -15.2355     0.0000     6.0000 </r>
       <r>   -15.1395     0.0000     6.0000 </r>
       <r>   -15.0434     0.0000     6.0000 </r>
       <r>   -14.9474     0.0000     6.0000 </r>
       <r>   -14.8514     0.0000     6.0000 </r>
       <r>   -14.7554     0.0000     6.0000 </r>
       <r>   -14.6593     0.0000     6.0000 </r>
       <r>   -14.5633     0.0000     6.0000 </r>
       <r>   -14.4673     0.0000     6.0000 </r>
       <r>   -14.3712     0.0000     6.0000 </r>
       <r>   -14.2752     0.0000     6.0000 </r>
       <r>   -14.1792     0.0000     6.0000 </r>
       <r>   -14.0832     0.0000     6.0000 </r>
       <r>   -13.9871     0.0000     6.0000 </r>
       <r>   -13.8911     0.0000     6.0000 </r>
       <r>   -13.7951     0.0000     6.0000 </r>
       <r>   -13.6990     0.0000     6.0000 </r>
       <r>   -13.6030     0.0000     6.0000 </r>
       <r>   -13.5070     0.0000     6.0000 </r>
       <r>   -13.4110     0.0000     6.0000 </r>
       <r>   -13.3149     0.0000     6.0000 </r>
       <r>   -13.2189    -0.0000     6.0000 </r>
       <r>   -13.1229    -0.0000     6.0000 </r>
       <r>   -13.0268    20.9502     8.0118 </r>
       <r>   -12.9308     0.0000     8.0000 </r>
       <r>   -12.8348     0.0000     8.0000 </r>
       <r>   -12.7388     0.0000     8.0000 </r>
       <r>   -12.6427     0.0000     8.0000 </r>
       <r>   -12.5467     0.0000     8.0000 </r>
       <r>   -12.4507     0.0000     8.0000 </r>
       <r>   -12.3547     0.0000     8.0000 </r>
       <r>   -12.2586     0.0000     8.0000 </r>
       <r>   -12.1626     0.0000     8.0000 </r>
       <r>   -12.0666     0.0000     8.0000 </r>
       <r>   -11.9705     0.0000     8.0000 </r>
       <r>   -11.8745     0.0000     8.0000 </r>
       <r>   -11.7785     0.0000     8.0000 </r>
       <r>   -11.6825     0.0000     8.0000 </r>
       <r>   -11.5864     0.0000     8.0000 </r>
       <r>   -11.4904    -0.0000     8.0000 </r>
       <r>   -11.3944    -0.0000     8.0000 </r>
       <r>   -11.2983    20.9020    10.0072 </r>
       <r>   -11.2023    17.7355    11.7031 </r>
       <r>   -11.1063    -0.0000    12.0000 </r>
       <r>   -11.0103    -0.0000    12.0000 </r>
       <r>   -10.9142    20.8434    14.0016 </r>
       <r>   -10.8182     0.0000    14.0000 </r>
       <r>   -10.7222     0.0000    14.0000 </r>
       <r>   -10.6261     0.0000    14.0000 </r>
       <r>   -10.5301     0.0000    14.0000 </r>
       <r>   -10.4341     0.0000    14.0000 </r>
       <r>   -10.3381     0.0000    14.0000 </r>
       <r>   -10.2420     0.0000    14.0000 </r>
       <r>   -10.1460     0.0000    14.0000 </r>
       <r>   -10.0500     0.0000    14.0000 </r>
       <r>    -9.9539    -0.0000    14.0000 </r>
       <r>    -9.8579    -0.0000    14.0000 </r>
       <r>    -9.7619    20.8272    16.0000 </r>
       <r>    -9.6659     0.0000    16.0000 </r>
       <r>    -9.5698    -0.0000    16.0000 </r>
       <r>    -9.4738    21.3068    18.0461 </r>
       <r>    -9.3778     0.0000    18.0000 </r>
       <r>    -9.2817    -0.0000    18.0000 </r>
       <r>    -9.1857    -0.4352    17.9582 </r>
       <r>    -9.0897    21.2624    20.0000 </r>
       <r>    -8.9937     0.0000    20.0000 </r>
       <r>    -8.8976     0.0000    20.0000 </r>
       <r>    -8.8016     0.0000    20.0000 </r>
       <r>    -8.7056    -0.0000    20.0000 </r>
       <r>    -8.6095    -0.0000    20.0000 </r>
       <r>    -8.5135    20.8558    22.0028 </r>
       <r>    -8.4175     0.0000    22.0000 </r>
       <r>    -8.3215     0.0000    22.0000 </r>
       <r>    -8.2254     0.0000    22.0000 </r>
       <r>    -8.1294     0.0000    22.0000 </r>
       <r>    -8.0334     0.0000    22.0000 </r>
       <r>    -7.9373     0.0000    22.0000 </r>
       <r>    -7.8413     0.0000    22.0000 </r>
       <r>    -7.7453     0.0000    22.0000 </r>
       <r>    -7.6493     0.0000    22.0000 </r>
       <r>    -7.5532     0.0000    22.0000 </r>
       <r>    -7.4572     0.0000    22.0000 </r>
       <r>    -7.3612     0.0000    22.0000 </r>
       <r>    -7.2652     0.0000    22.0000 </r>
       <r>    -7.1691     0.0000    22.0000 </r>
       <r>    -7.0731     0.0000    22.0000 </r>
       <r>    -6.9771     0.0000    22.0000 </r>
       <r>    -6.8810     0.0000    22.0000 </r>
       <r>    -6.7850     0.0000    22.0000 </r>
       <r>    -6.6890     0.0000    22.0000 </r>
       <r>    -6.5930     0.0000    22.0000 </r>
       <r>    -6.4969     0.0000    22.0000 </r>
       <r>    -6.4009     0.0000    22.0000 </r>
       <r>    -6.3049     0.0000    22.0000 </r>
       <r>    -6.2088     0.0000    22.0000 </r>
       <r>    -6.1128     0.0000    22.0000 </r>
       <r>    -6.0168     0.0000    22.0000 </r>
       <r>    -5.9208     0.0000    22.0000 </r>
       <r>    -5.8247     0.0000    22.0000 </r>
       <r>    -5.7287    -0.0000    22.0000 </r>
       <r>    -5.6327     1.7346    22.1666 </r>
       <r>    -5.5366     0.0000    24.0000 </r>
       <r>    -5.4406     0.0000    24.0000 </r>
       <r>    -5.3446     0.0000    24.0000 </r>
       <r>    -5.2486     0.0000    24.0000 </r>
       <r>    -5.1525     0.0000    24.0000 </r>
       <r>    -5.0565     0.0000    24.0000 </r>
       <r>    -4.9605     0.0000    24.0000 </r>
       <r>    -4.8644     0.0000    24.0000 </r>
       <r>    -4.7684     0.0000    24.0000 </r>
       <r>    -4.6724     0.0000    24.0000 </r>
       <r>    -4.5764     0.0000    24.0000 </r>
       <r>    -4.4803     0.0000    24.0000 </r>
       <r>    -4.3843     0.0000    24.0000 </r>
       <r>    -4.2883     0.0000    24.0000 </r>
       <r>    -4.1922     0.0000    24.0000 </r>
       <r>    -4.0962     0.0000    24.0000 </r>
       <r>    -4.0002     0.0000    24.0000 </r>
       <r>    -3.9042     0.0000    24.0000 </r>
       <r>    -3.8081     0.0000    24.0000 </r>
       <r>    -3.7121     0.0000    24.0000 </r>
       <r>    -3.6161     0.0000    24.0000 </r>
       <r>    -3.5200     0.0000    24.0000 </r>
       <r>    -3.4240     0.0000    24.0000 </r>
       <r>    -3.3280     0.0000    24.0000 </r>
       <r>    -3.2320     0.0000    24.0000 </r>
       <r>    -3.1359     0.0000    24.0000 </r>
       <r>    -3.0399     0.0000    24.0000 </r>
       <r>    -2.9439     0.0000    24.0000 </r>
       <r>    -2.8478     0.0000    24.0000 </r>
       <r>    -2.7518     0.0000    24.0000 </r>
       <r>    -2.6558     0.0000    24.0000 </r>
       <r>    -2.5598     0.0000    24.0000 </r>
       <r>    -2.4637     0.0000    24.0000 </r>
       <r>    -2.3677     0.0000    24.0000 </r>
       <r>    -2.2717     0.0000    24.0000 </r>
       <r>    -2.1757     0.0000    24.0000 </r>
       <r>    -2.0796     0.0000    24.0000 </r>
       <r>    -1.9836     0.0000    24.0000 </r>
       <r>    -1.8876    -0.0000    24.0000 </r>
       <r>    -1.7915    -0.0000    24.0000 </r>
       <r>    -1.6955    20.8279    26.0001 </r>
       <r>    -1.5995     0.0000    26.0000 </r>
       <r>    -1.5035     0.0000    26.0000 </r>
       <r>    -1.4074     0.0000    26.0000 </r>
       <r>    -1.3114     0.0000    26.0000 </r>
       <r>    -1.2154     0.0000    26.0000 </r>
       <r>    -1.1193     0.0000    26.0000 </r>
       <r>    -1.0233     0.0000    26.0000 </r>
       <r>    -0.9273     0.0000    26.0000 </r>
       <r>    -0.8313    -0.0000    26.0000 </r>
       <r>    -0.7352    -0.0000    26.0000 </r>
       <r>    -0.6392    20.8272    28.0000 </r>
       <r>    -0.5432     0.0000    28.0000 </r>
       <r>    -0.4471     0.0000    28.0000 </r>
       <r>    -0.3511     0.0000    28.0000 </r>
       <r>    -0.2551     0.0000    28.0000 </r>
       <r>    -0.1591     0.0000    28.0000 </r>
       <r>    -0.0630    -0.0000    28.0000 </r>
       <r>     0.0330     5.7779    28.5548 </r>
       <r>     0.1290    20.8272    32.0000 </r>
       <r>     0.2251    20.8271    34.0000 </r>
       <r>     0.3211    20.8273    36.0000 </r>
       <r>     0.4171     0.0000    36.0000 </r>
       <r>     0.5131     0.0000    36.0000 </r>
       <r>     0.6092     0.0000    36.0000 </r>
       <r>     0.7052     0.0000    36.0000 </r>
       <r>     0.8012     0.0000    36.0000 </r>
       <r>     0.8973     0.0000    36.0000 </r>
       <r>     0.9933     0.0000    36.0000 </r>
       <r>     1.0893     0.0000    36.0000 </r>
       <r>     1.1853     0.0000    36.0000 </r>
       <r>     1.2814     0.0000    36.0000 </r>
       <r>     1.3774     0.0000    36.0000 </r>
       <r>     1.4734     0.0000    36.0000 </r>
       <r>     1.5695     0.0000    36.0000 </r>
      </set>
     </set>
    </array>
   </total>
  </dos>
 </calculation>
 <structure name="finalpos" >
  <crystal>
   <varray name="basis" >
    <v>      16.32993162      -8.16496581      -8.16496581 </v>
    <v>       0.00000000      14.14213562     -14.14213562 </v>
    <v>      11.54700538      11.54700538      11.54700538 </v>
   </varray>
   <i name="volume">   8000.00000000 </i>
   <varray name="rec_basis" >
    <v>       0.04082483      -0.02041241      -0.02041241 </v>
    <v>       0.00000000       0.03535534      -0.03535534 </v>
    <v>       0.02886751       0.02886751       0.02886751 </v>
   </varray>
  </crystal>
  <varray name="positions" >
   <v>       0.39704028       0.56594130       0.56835255 </v>
   <v>       0.41326158       0.54290609       0.62277948 </v>
   <v>       0.38593193       0.47687153       0.64776274 </v>
   <v>       0.46195166       0.57878872       0.66836306 </v>
   <v>       0.47529573       0.62762457       0.64737805 </v>
   <v>       0.35301116       0.45445853       0.61012026 </v>
   <v>       0.35799651       0.48450084       0.69464646 </v>
   <v>       0.42717929       0.44230645       0.65959939 </v>
   <v>       0.50751551       0.54837297       0.67448482 </v>
   <v>       0.44049846       0.58505784       0.71869320 </v>
  </varray>
  <varray name="selective"  type="logical" >
   <v type="logical" >  T  T  T </v>
   <v type="logical" >  T  T  T </v>
   <v type="logical" >  T  T  T </v>
   <v type="logical" >  T  T  T </v>
   <v type="logical" >  T  T  T </v>
   <v type="logical" >  T  T  T </v>
   <v type="logical" >  T  T  T </v>
   <v type="logical" >  T  T  T </v>
   <v type="logical" >  T  T  T </v>
   <v type="logical" >  T  T  T </v>
  </varray>
  <nose>
   <v>      -3.00000000       0.00000000       0.00010000       0.00010000 </v>
  </nose>
 </structure>
</modeling>
