unknown system                          
           1
    16.329932   -8.164966   -8.164966
     0.000000   14.142136  -14.142136
    11.547005   11.547005   11.547005
   O    C    H 
   1   3   6
Direct configuration=     1
   0.39704028  0.56594130  0.56835255
   0.41326158  0.54290609  0.62277948
   0.38593193  0.47687153  0.64776274
   0.46195166  0.57878872  0.66836306
   0.47529573  0.62762457  0.64737805
   0.35301116  0.45445853  0.61012026
   0.35799651  0.48450084  0.69464646
   0.42717929  0.44230645  0.65959939
   0.50751551  0.54837297  0.67448482
   0.44049846  0.58505784  0.71869320
