    3    3  200    1
  0.2666667E+04  0.2000000E-08  0.2000000E-08  0.2000000E-08  0.5000000E-15
  1.000000000000000E-004
  CAR 
 unknown system                          
    8    1   20
 
  0.0000000E+00  0.0000000E+00  0.0000000E+00  0.1000000E+01
   1      -25.287211
   2      -13.083036
   3       -9.261569
   4       -7.197375
   5       -0.987074
   6        0.007882
   7        0.219980
   8        0.300134
   9        0.320776
  10        0.339399
  11        0.348629
  12        0.458164
  13        0.509499
  14        0.611445
  15        0.632903
  16        0.707006
  17        0.708264
  18        0.711767
  19        0.719716
  20        0.725408
