unknown system                          
           1
    16.329932   -8.164966   -8.164966
     0.000000   14.142136  -14.142136
    11.547005   11.547005   11.547005
   O    H 
   1   2
Direct configuration=     1
   0.39738397  0.56183873  0.56036890
   0.37400411  0.54615490  0.60004124
   0.38743563  0.60941922  0.55843203
