    8    8  200    1
  0.1000000E+04  0.2000000E-08  0.2000000E-08  0.2000000E-08  0.5000000E-15
  1.000000000000000E-004
  CAR 
 unknown system                          
   14    1   12
 
  0.0000000E+00  0.0000000E+00  0.0000000E+00  0.1000000E+01
   1      -18.490952
   2      -14.973722
   3      -10.465839
   4      -10.447475
   5       -8.870558
   6       -8.090721
   7       -8.070127
   8       -0.442307
   9        0.077800
  10        0.086405
  11        0.226329
  12        0.232253
