 vasp.5.3.2 13Sep12 (build Oct  1 2014 13:46:58) complex                        
  
 executed on             LinuxIFC date 2015.11.22  18:50:12
 running on   20 total cores
 distrk:  each k-point on   20 cores,    1 groups
 distr:  one band on NCORES_PER_BAND=  20 cores,    1 groups


--------------------------------------------------------------------------------------------------------


 INCAR:
 POTCAR:    PAW_PBE C 08Apr2002                   
 POTCAR:    PAW_PBE H 15Jun2001                   

 ----------------------------------------------------------------------------- 
|                                                                             |
|           W    W    AA    RRRRR   N    N  II  N    N   GGGG   !!!           |
|           W    W   A  A   R    R  NN   N  II  NN   N  G    G  !!!           |
|           W    W  A    A  R    R  N N  N  II  N N  N  G       !!!           |
|           W WW W  AAAAAA  RRRRR   N  N N  II  N  N N  G  GGG   !            |
|           WW  WW  A    A  R   R   N   NN  II  N   NN  G    G                |
|           W    W  A    A  R    R  N    N  II  N    N   GGGG   !!!           |
|                                                                             |
|      For optimal performance we recommend that you set                      |
|        NPAR = 4 - approx SQRT( number of cores)                             |
|      (number of cores/NPAR must be integer)                                 |
|      This setting will greatly improve the performance of VASP for DFT.     |
|      The default NPAR=number of cores might be grossly inefficient          |
|      on modern multi-core architectures or massively parallel machines.     |
|      Do your own testing.                                                   |
|      Unfortunately you need to use the default for hybrid, GW and RPA       |
|      calculations.                                                          |
|                                                                             |
 ----------------------------------------------------------------------------- 

 POTCAR:    PAW_PBE C 08Apr2002                   
  local pseudopotential read in
  partial core-charges read in
  partial kinetic energy density read in
  atomic valenz-charges read in
  non local Contribution for L=           0  read in
    real space projection operators read in
  non local Contribution for L=           0  read in
    real space projection operators read in
  non local Contribution for L=           1  read in
    real space projection operators read in
  non local Contribution for L=           1  read in
    real space projection operators read in
    PAW grid and wavefunctions read in
 
   number of l-projection  operators is LMAX  =           4
   number of lm-projection operators is LMMAX =           8
 
 POTCAR:    PAW_PBE H 15Jun2001                   
  local pseudopotential read in
  atomic valenz-charges read in
  non local Contribution for L=           0  read in
    real space projection operators read in
  non local Contribution for L=           0  read in
    real space projection operators read in
  non local Contribution for L=           1  read in
    real space projection operators read in
    PAW grid and wavefunctions read in
 
   number of l-projection  operators is LMAX  =           3
   number of lm-projection operators is LMMAX =           5
 

 ----------------------------------------------------------------------------- 
|                                                                             |
|  ADVICE TO THIS USER RUNNING 'VASP/VAMP'   (HEAR YOUR MASTER'S VOICE ...):  |
|                                                                             |
|      You have a (more or less) 'small supercell' and for smaller cells      |
|      it is recommended  to use the reciprocal-space projection scheme!      |
|      The real space optimization is not  efficient for small cells and it   |
|      is also less accurate ...                                              |
|      Therefore set LREAL=.FALSE. in the  INCAR file                         |
|                                                                             |
 ----------------------------------------------------------------------------- 

 Optimization of the real space projectors (new method)

 maximal supplied QI-value         = 25.13
 optimisation between [QCUT,QGAM] = [ 10.05, 20.36] = [ 28.30,116.06] Ry 
 Optimized for a Real-space Cutoff    1.51 Angstroem

   l    n(q)    QCUT    max X(q) W(low)/X(q) W(high)/X(q)  e(spline) 
   0      9    10.053   115.676    0.19E-03    0.21E-03    0.38E-06
   0      9    10.053    87.132    0.19E-03    0.21E-03    0.38E-06
   1      9    10.053     4.429    0.87E-04    0.11E-03    0.39E-06
   1      9    10.053     2.733    0.59E-04    0.62E-04    0.43E-06
 Optimization of the real space projectors (new method)

 maximal supplied QI-value         = 34.20
 optimisation between [QCUT,QGAM] = [  9.92, 20.18] = [ 27.55,114.04] Ry 
 Optimized for a Real-space Cutoff    1.34 Angstroem

   l    n(q)    QCUT    max X(q) W(low)/X(q) W(high)/X(q)  e(spline) 
   0      8     9.919    19.460    0.16E-03    0.20E-03    0.36E-06
   0      8     9.919    12.209    0.16E-03    0.20E-03    0.35E-06
   1      8     9.919     4.655    0.19E-03    0.46E-03    0.40E-06
  PAW_PBE C 08Apr2002                   :
 energy of atom  1       EATOM= -147.1560
 kinetic energy error for atom=    0.0288 (will be added to EATOM!!)
  PAW_PBE H 15Jun2001                   :
 energy of atom  2       EATOM=  -12.4884
 kinetic energy error for atom=    0.0098 (will be added to EATOM!!)
 
 
 POSCAR: C  H                                    
  positions in direct lattice
  velocities in cartesian coordinates
 exchange correlation table for  LEXCH =        8
   RHO(1)=    0.500       N(1)  =     2000
   RHO(2)=  100.500       N(2)  =     4000

 VTST: version 3.0, (09/19/12)

 CHAIN: initializing optimizer
 
 OPT: Using VASP QUASI-newton optimizer
 CHAIN: Read ICHAIN            0
 
 POSCAR: C  H                                    
  positions in direct lattice
  velocities in cartesian coordinates
 


--------------------------------------------------------------------------------------------------------


 ion  position               nearest neighbor table
   1  0.350  0.553  0.513-   7 1.10   3 1.10   4 1.10   2 1.53
   2  0.409  0.551  0.562-   6 1.10   8 1.10   5 1.10   1 1.53
   3  0.353  0.596  0.479-   1 1.10
   4  0.348  0.508  0.482-   1 1.10
   5  0.412  0.597  0.592-   2 1.10
   6  0.457  0.546  0.535-   2 1.10
   7  0.302  0.557  0.540-   1 1.10
   8  0.405  0.509  0.597-   2 1.10
 

IMPORTANT INFORMATION: All symmetrisations will be switched off!
NOSYMM: (Re-)initialisation of all symmetry stuff for point group C_1.

 
 
 KPOINTS: K-Point Grid. Created by Vassili Vorotni

Automatic generation of k-mesh.
Space group operators:
 irot       det(A)        alpha          n_x          n_y          n_z        tau_x        tau_y        tau_z
    1     1.000000     0.000001     1.000000     0.000000     0.000000     0.000000     0.000000     0.000000
 
 Subroutine IBZKPT returns following result:
 ===========================================
 
 Found      1 irreducible k-points:
 
 Following reciprocal coordinates:
            Coordinates               Weight
  0.000000  0.000000  0.000000      1.000000
 
 Following cartesian coordinates:
            Coordinates               Weight
  0.000000  0.000000  0.000000      1.000000
 


--------------------------------------------------------------------------------------------------------




 Dimension of arrays:
   k-points           NKPTS =      1   k-points in BZ     NKDIM =      1   number of bands    NBANDS=     12
   number of dos      NEDOS =    301   number of ions     NIONS =      8
   non local maximal  LDIM  =      4   non local SUM 2l+1 LMDIM =      8
   total plane-waves  NPLWV = 941192
   max r-space proj   IRMAX =   1741   max aug-charges    IRDMAX=   1074
   dimension x,y,z NGX =    98 NGY =   98 NGZ =   98
   dimension x,y,z NGXF=   168 NGYF=  168 NGZF=  168
   support grid    NGXF=   168 NGYF=  168 NGZF=  168
   ions per type =               2   6
 NGX,Y,Z   is equivalent  to a cutoff of   8.15,  8.15,  8.15 a.u.
 NGXF,Y,Z  is equivalent  to a cutoff of  13.96, 13.96, 13.96 a.u.


 I would recommend the setting:
   dimension x,y,z NGX =    98 NGY =   98 NGZ =   98
 SYSTEM =  unknown system                          
 POSCAR =  C  H                                    

 Startparameter for this run:
   NWRITE =      1    write-flag & timer
   PREC   = med       normal or accurate (medium, high low for compatibility)
   ISTART =      0    job   : 0-new  1-cont  2-samecut
   ICHARG =      2    charge: 1-file 2-atom 10-const
   ISPIN  =      1    spin polarized calculation?
   LNONCOLLINEAR =      F non collinear calculations
   LSORBIT =      F    spin-orbit coupling
   INIWAV =      1    electr: 0-lowe 1-rand  2-diag
   LASPH  =      F    aspherical Exc in radial PAW
   METAGGA=      F    non-selfconsistent MetaGGA calc.

 Electronic Relaxation 1
   ENCUT  =  400.0 eV  29.40 Ry    5.42 a.u.  32.61 32.61 32.61*2*pi/ulx,y,z
   ENINI  =  400.0     initial cutoff
   ENAUG  =  644.9 eV  augmentation charge cutoff
   NELM   =    400;   NELMIN=  2; NELMDL=-10     # of ELM steps 
   EDIFF  = 0.1E-05   stopping-criterion for ELM
   LREAL  =      T    real-space projection
   NLSPLINE    = F    spline interpolate recip. space projectors
   LCOMPAT=      F    compatible to vasp.4.4
   GGA_COMPAT  = T    GGA compatible to vasp.4.4-vasp.4.6
   LMAXPAW     = -100 max onsite density
   LMAXMIX     =    2 max onsite mixed and CHGCAR
   VOSKOWN=      1    Vosko Wilk Nusair interpolation
   ROPT   =   -0.00020  -0.00020
 Ionic relaxation
   EDIFFG = -.1E-01   stopping-criterion for IOM
   NSW    =    200    number of steps for IOM
   NBLOCK =      1;   KBLOCK =    200    inner block; outer block 
   IBRION =      1    ionic relax: 0-MD 1-quasi-New 2-CG
   NFREE  =      2    steps in history (QN), initial steepest desc. (CG)
   ISIF   =      2    stress and relaxation
   IWAVPR =     11    prediction:  0-non 1-charg 2-wave 3-comb
   ISYM   =      0    0-nonsym 1-usesym 2-fastsym
   LCORR  =      T    Harris-Foulkes like correction to forces

   POTIM  = 0.5000    time-step for ionic-motion
   TEIN   =    0.0    initial temperature
   TEBEG  =    0.0;   TEEND  =   0.0 temperature during run
   SMASS  =  -3.00    Nose mass-parameter (am)
   estimated Nose-frequenzy (Omega)   =  0.10E-29 period in steps =****** mass=  -0.914E-26a.u.
   SCALEE = 1.0000    scale energy and forces
   NPACO  =    256;   APACO  = 16.0  distance and # of slots for P.C.
   PSTRESS=    0.0 pullay stress

  Mass of Ions in am
   POMASS =  12.01  1.00
  Ionic Valenz
   ZVAL   =   4.00  1.00
  Atomic Wigner-Seitz radii
   RWIGS  =  -1.00 -1.00
  virtual crystal weights 
   VCA    =   1.00  1.00
   NELECT =      14.0000    total number of electrons
   NUPDOWN=      -1.0000    fix difference up-down

 DOS related values:
   EMIN   =  10.00;   EMAX   =-10.00  energy-range for DOS
   EFERMI =   0.00
   ISMEAR =     1;   SIGMA  =   0.01  broadening in eV -4-tet -1-fermi 0-gaus

 Electronic relaxation 2 (details)
   IALGO  =     68    algorithm
   LDIAG  =      T    sub-space diagonalisation (order eigenvalues)
   LSUBROT=      T    optimize rotation matrix (better conditioning)
   TURBO    =      0    0=normal 1=particle mesh
   IRESTART =      0    0=no restart 2=restart with 2 vectors
   NREBOOT  =      0    no. of reboots
   NMIN     =      0    reboot dimension
   EREF     =   0.00    reference energy to select bands
   IMIX   =      4    mixing-type and parameters
     AMIX     =   0.40;   BMIX     =  1.00
     AMIX_MAG =   1.60;   BMIX_MAG =  1.00
     AMIN     =   0.10
     WC   =   100.;   INIMIX=   1;  MIXPRE=   1;  MAXMIX= -45

 Intra band minimization:
   WEIMIN = 0.0010     energy-eigenvalue tresh-hold
   EBREAK =  0.21E-07  absolut break condition
   DEPER  =   0.30     relativ break condition  

   TIME   =   0.40     timestep for ELM

  volume/ion in A,a.u.               =    1000.00      6748.33
  Fermi-wavevector in a.u.,A,eV,Ry     =   0.197282  0.372809  0.529541  0.038920
  Thomas-Fermi vector in A             =   0.947104
 
 Write flags
   LWAVE  =      F    write WAVECAR
   LCHARG =      F    write CHGCAR
   LVTOT  =      F    write LOCPOT, total local potential
   LVHAR  =      F    write LOCPOT, Hartree potential only
   LELF   =      F    write electronic localiz. function (ELF)
   LORBIT =      0    0 simple, 1 ext, 2 COOP (PROOUT)


 Dipole corrections
   LMONO  =      F    monopole corrections only (constant potential shift)
   LDIPOL =      F    correct potential (dipole corrections)
   IDIPOL =      0    1-x, 2-y, 3-z, 4-all directions 
   EPSILON=  1.0000000 bulk dielectric constant

 Exchange correlation treatment:
   GGA     =    --    GGA type
   LEXCH   =     8    internal setting for exchange type
   VOSKOWN=      1    Vosko Wilk Nusair interpolation
   LHFCALC =     F    Hartree Fock is set to
   LHFONE  =     F    Hartree Fock one center treatment
   AEXX    =    0.0000 exact exchange contribution

 Linear response parameters
   LEPSILON=     F    determine dielectric tensor
   LRPA    =     F    only Hartree local field effects (RPA)
   LNABLA  =     F    use nabla operator in PAW spheres
   LVEL    =     F    velocity operator in full k-point grid
   LINTERFAST=   F  fast interpolation
   KINTER  =     0    interpolate to denser k-point grid
   CSHIFT  =0.1000    complex shift for real part using Kramers Kronig
   OMEGAMAX=  -1.0    maximum frequency
   DEG_THRESHOLD= 0.2000000E-02 threshold for treating states as degnerate
   RTIME   =    0.100 relaxation time in fs

 Orbital magnetization related:
   ORBITALMAG=     F  switch on orbital magnetization
   LCHIMAG   =     F  perturbation theory with respect to B field
   DQ        =  0.001000  dq finite difference perturbation B field



--------------------------------------------------------------------------------------------------------


 quasi-Newton-method for relaxation of ions
   using selective dynamics as specified on POSCAR
 charge density and potential will be updated during run
 non-spin polarized calculation
 RMM-DIIS sequential band-by-band and
  variant of blocked Davidson during initial phase
 perform sub-space diagonalisation
    before iterative eigenvector-optimisation
 modified Broyden-mixing scheme, WC =      100.0
 initial mixing is a Kerker type mixing with AMIX =  0.4000 and BMIX =      1.0000
 Hartree-type preconditioning will be used
 using additional bands            5
 real space projection scheme for non local part
 use partial core corrections
 calculate Harris-corrections to forces 
   (improved forces if not selfconsistent)
 use gradient corrections 
 use of overlap-Matrix (Vanderbilt PP)
 Methfessel and Paxton  Order N= 1 SIGMA  =   0.01


--------------------------------------------------------------------------------------------------------


  energy-cutoff  :      400.00
  volume of cell :     8000.00
      direct lattice vectors                 reciprocal lattice vectors
    16.329931619 -8.164965809 -8.164965809     0.040824829 -0.020412415 -0.020412415
     0.000000000 14.142135624-14.142135624     0.000000000  0.035355339 -0.035355339
    11.547005384 11.547005384 11.547005384     0.028867513  0.028867513  0.028867513

  length of vectors
    20.000000000 20.000000000 20.000000000     0.050000000  0.050000000  0.050000000


 
 k-points in units of 2pi/SCALE and weight: K-Point Grid. Created by Vassili Vorotni
   0.00000000  0.00000000  0.00000000       1.000
 
 k-points in reciprocal lattice and weights: K-Point Grid. Created by Vassili Vorotni
   0.00000000  0.00000000  0.00000000       1.000
 
 position of ions in fractional coordinates (direct lattice) 
   0.34996834  0.55335306  0.51333331
   0.40906104  0.55143780  0.56169911
   0.35333718  0.59635762  0.47917263
   0.34789191  0.50794774  0.48229575
   0.41182808  0.59736384  0.59191009
   0.45685616  0.54649952  0.53491363
   0.30206979  0.55719024  0.54011757
   0.40518758  0.50910612  0.59663593
 
 position of ions in cartesian coordinates  (Angst):
  11.64242154 10.89557702 -4.75561102
  13.16588154 10.94448143 -4.65253498
  11.30298102 11.08179330 -5.78574742
  11.25012265  9.91201191 -4.45491982
  13.55991326 11.92022729 -4.97577370
  13.63708038 10.17510606 -5.28223473
  11.16951946 11.65021088 -4.10950889
  13.50604371 10.78086334 -3.61883226
 


--------------------------------------------------------------------------------------------------------


 k-point  1 :   0.0000 0.0000 0.0000  plane waves:  145165

 maximum and minimum number of plane-waves per node :      7271     7241

 maximum number of plane-waves:    145165
 maximum index in each direction: 
   IXMAX=   32   IYMAX=   32   IZMAX=   32
   IXMIN=  -32   IYMIN=  -32   IZMIN=  -32

 WARNING: aliasing errors must be expected set NGX to 130 to avoid them
 WARNING: aliasing errors must be expected set NGY to 130 to avoid them
 WARNING: aliasing errors must be expected set NGZ to 130 to avoid them
 aliasing errors are usually negligible using standard VASP settings
 and one can safely disregard these warnings

 real space projection operators:
  total allocation   :        475.14 KBytes
  max/ min on nodes  :         34.37         10.24


 parallel 3D FFT for wavefunctions:
    minimum data exchange during FFTs selected (reduces bandwidth)
 parallel 3D FFT for charge:
    minimum data exchange during FFTs selected (reduces bandwidth)


 total amount of memory used by VASP on root node    58098. kBytes
========================================================================

   base      :      30000. kBytes
   nonlr-proj:        269. kBytes
   fftplans  :      10155. kBytes
   grid      :      16274. kBytes
   one-center:          3. kBytes
   wavefun   :       1397. kBytes
 
 Broyden mixing: mesh for mixing (old mesh)
   NGX = 65   NGY = 65   NGZ = 65
  (NGX  =168   NGY  =168   NGZ  =168)
  gives a total of 274625 points

 initial charge density was supplied:
 charge density of overlapping atoms calculated
 number of electron      14.0000000 magnetization 
 keeping initial charge density in first step


--------------------------------------------------------------------------------------------------------


 Maximum index for non-local projection operator          175
 Maximum index for augmentation-charges          103 (set IRDMAX)


--------------------------------------------------------------------------------------------------------


 First call to EWALD:  gamma=   0.089
 Maximum number of real-space cells 3x 3x 3
 Maximum number of reciprocal cells 3x 3x 3

 FEWALD executed in parallel
    FEWALD:  cpu time    0.00: real time    0.00


----------------------------------------- Iteration    1(   1)  ---------------------------------------


    POTLOK:  cpu time    0.19: real time    0.20
    SETDIJ:  cpu time    0.00: real time    0.00
     EDDAV:  cpu time    0.34: real time    0.40
       DOS:  cpu time    0.00: real time    0.00
    --------------------------------------------
      LOOP:  cpu time    0.54: real time    0.61

 eigenvalue-minimisations  :    40
 total energy-change (2. order) : 0.6140588E+02  (-0.2608532E+03)
 number of electron      14.0000000 magnetization 
 augmentation part       14.0000000 magnetization 

 Free energy of the ion-electron system (eV)
  ---------------------------------------------------
  alpha Z        PSCENC =         0.09745814
  Ewald energy   TEWEN  =       520.31908462
  -1/2 Hartree   DENC   =      -739.75246171
  -exchange  EXHF       =         0.00000000
  -V(xc)+E(xc)   XCENC  =        39.84694806
  PAW double counting   =       229.84825738     -231.04033570
  entropy T*S    EENTRO =         0.00057979
  eigenvalues    EBANDS =      -127.03989614
  atomic energy  EATOM  =       369.12624373
  ---------------------------------------------------
  free energy    TOTEN  =        61.40587817 eV

  energy without entropy =       61.40529838  energy(sigma->0) =       61.40568490


--------------------------------------------------------------------------------------------------------




----------------------------------------- Iteration    1(   2)  ---------------------------------------


     EDDAV:  cpu time    3.04: real time    3.53
       DOS:  cpu time    0.00: real time    0.00
    --------------------------------------------
      LOOP:  cpu time    3.04: real time    3.61

 eigenvalue-minimisations  :    40
 total energy-change (2. order) :-0.8053466E+02  (-0.8014437E+02)
 number of electron      14.0000000 magnetization 
 augmentation part       14.0000000 magnetization 

 Free energy of the ion-electron system (eV)
  ---------------------------------------------------
  alpha Z        PSCENC =         0.09745814
  Ewald energy   TEWEN  =       520.31908462
  -1/2 Hartree   DENC   =      -739.75246171
  -exchange  EXHF       =         0.00000000
  -V(xc)+E(xc)   XCENC  =        39.84694806
  PAW double counting   =       229.84825738     -231.04033570
  entropy T*S    EENTRO =         0.00057979
  eigenvalues    EBANDS =      -207.57456079
  atomic energy  EATOM  =       369.12624373
  ---------------------------------------------------
  free energy    TOTEN  =       -19.12878648 eV

  energy without entropy =      -19.12936627  energy(sigma->0) =      -19.12897974


--------------------------------------------------------------------------------------------------------




----------------------------------------- Iteration    1(   3)  ---------------------------------------


     EDDAV:  cpu time    0.24: real time    0.24
       DOS:  cpu time    0.00: real time    0.00
    --------------------------------------------
      LOOP:  cpu time    0.24: real time    0.26

 eigenvalue-minimisations  :    32
 total energy-change (2. order) :-0.2398686E+02  (-0.2397323E+02)
 number of electron      14.0000000 magnetization 
 augmentation part       14.0000000 magnetization 

 Free energy of the ion-electron system (eV)
  ---------------------------------------------------
  alpha Z        PSCENC =         0.09745814
  Ewald energy   TEWEN  =       520.31908462
  -1/2 Hartree   DENC   =      -739.75246171
  -exchange  EXHF       =         0.00000000
  -V(xc)+E(xc)   XCENC  =        39.84694806
  PAW double counting   =       229.84825738     -231.04033570
  entropy T*S    EENTRO =         0.00057979
  eigenvalues    EBANDS =      -231.56142348
  atomic energy  EATOM  =       369.12624373
  ---------------------------------------------------
  free energy    TOTEN  =       -43.11564918 eV

  energy without entropy =      -43.11622897  energy(sigma->0) =      -43.11584244


--------------------------------------------------------------------------------------------------------




----------------------------------------- Iteration    1(   4)  ---------------------------------------


     EDDAV:  cpu time    0.24: real time    0.24
       DOS:  cpu time    0.00: real time    0.00
    --------------------------------------------
      LOOP:  cpu time    0.24: real time    0.27

 eigenvalue-minimisations  :    32
 total energy-change (2. order) :-0.2601050E+01  (-0.2600849E+01)
 number of electron      14.0000000 magnetization 
 augmentation part       14.0000000 magnetization 

 Free energy of the ion-electron system (eV)
  ---------------------------------------------------
  alpha Z        PSCENC =         0.09745814
  Ewald energy   TEWEN  =       520.31908462
  -1/2 Hartree   DENC   =      -739.75246171
  -exchange  EXHF       =         0.00000000
  -V(xc)+E(xc)   XCENC  =        39.84694806
  PAW double counting   =       229.84825738     -231.04033570
  entropy T*S    EENTRO =         0.00057979
  eigenvalues    EBANDS =      -234.16247382
  atomic energy  EATOM  =       369.12624373
  ---------------------------------------------------
  free energy    TOTEN  =       -45.71669951 eV

  energy without entropy =      -45.71727930  energy(sigma->0) =      -45.71689277


--------------------------------------------------------------------------------------------------------




----------------------------------------- Iteration    1(   5)  ---------------------------------------


     EDDAV:  cpu time    0.24: real time    0.24
       DOS:  cpu time    0.00: real time    0.00
    --------------------------------------------
      LOOP:  cpu time    0.24: real time    0.26

 eigenvalue-minimisations  :    32
 total energy-change (2. order) :-0.1011215E+00  (-0.1011233E+00)
 number of electron      14.0000000 magnetization 
 augmentation part       14.0000000 magnetization 

 Free energy of the ion-electron system (eV)
  ---------------------------------------------------
  alpha Z        PSCENC =         0.09745814
  Ewald energy   TEWEN  =       520.31908462
  -1/2 Hartree   DENC   =      -739.75246171
  -exchange  EXHF       =         0.00000000
  -V(xc)+E(xc)   XCENC  =        39.84694806
  PAW double counting   =       229.84825738     -231.04033570
  entropy T*S    EENTRO =         0.00060412
  eigenvalues    EBANDS =      -234.26361961
  atomic energy  EATOM  =       369.12624373
  ---------------------------------------------------
  free energy    TOTEN  =       -45.81782097 eV

  energy without entropy =      -45.81842509  energy(sigma->0) =      -45.81802235


--------------------------------------------------------------------------------------------------------




----------------------------------------- Iteration    1(   6)  ---------------------------------------


     EDDAV:  cpu time    0.24: real time    0.24
       DOS:  cpu time    0.00: real time    0.00
    --------------------------------------------
      LOOP:  cpu time    0.24: real time    0.27

 eigenvalue-minimisations  :    32
 total energy-change (2. order) :-0.3711784E-02  (-0.3712108E-02)
 number of electron      14.0000000 magnetization 
 augmentation part       14.0000000 magnetization 

 Free energy of the ion-electron system (eV)
  ---------------------------------------------------
  alpha Z        PSCENC =         0.09745814
  Ewald energy   TEWEN  =       520.31908462
  -1/2 Hartree   DENC   =      -739.75246171
  -exchange  EXHF       =         0.00000000
  -V(xc)+E(xc)   XCENC  =        39.84694806
  PAW double counting   =       229.84825738     -231.04033570
  entropy T*S    EENTRO =         0.00061678
  eigenvalues    EBANDS =      -234.26734406
  atomic energy  EATOM  =       369.12624373
  ---------------------------------------------------
  free energy    TOTEN  =       -45.82153276 eV

  energy without entropy =      -45.82214954  energy(sigma->0) =      -45.82173835


--------------------------------------------------------------------------------------------------------




----------------------------------------- Iteration    1(   7)  ---------------------------------------


     EDDAV:  cpu time    0.34: real time    0.34
       DOS:  cpu time    0.00: real time    0.00
    --------------------------------------------
      LOOP:  cpu time    0.34: real time    0.36

 eigenvalue-minimisations  :    48
 total energy-change (2. order) :-0.1648237E-03  (-0.1648245E-03)
 number of electron      14.0000000 magnetization 
 augmentation part       14.0000000 magnetization 

 Free energy of the ion-electron system (eV)
  ---------------------------------------------------
  alpha Z        PSCENC =         0.09745814
  Ewald energy   TEWEN  =       520.31908462
  -1/2 Hartree   DENC   =      -739.75246171
  -exchange  EXHF       =         0.00000000
  -V(xc)+E(xc)   XCENC  =        39.84694806
  PAW double counting   =       229.84825738     -231.04033570
  entropy T*S    EENTRO =         0.00061742
  eigenvalues    EBANDS =      -234.26750952
  atomic energy  EATOM  =       369.12624373
  ---------------------------------------------------
  free energy    TOTEN  =       -45.82169758 eV

  energy without entropy =      -45.82231500  energy(sigma->0) =      -45.82190339


--------------------------------------------------------------------------------------------------------




----------------------------------------- Iteration    1(   8)  ---------------------------------------


     EDDAV:  cpu time    0.27: real time    0.27
       DOS:  cpu time    0.00: real time    0.00
    --------------------------------------------
      LOOP:  cpu time    0.27: real time    0.29

 eigenvalue-minimisations  :    36
 total energy-change (2. order) :-0.1680951E-07  (-0.1648224E-07)
 number of electron      14.0000000 magnetization 
 augmentation part       14.0000000 magnetization 

 Free energy of the ion-electron system (eV)
  ---------------------------------------------------
  alpha Z        PSCENC =         0.09745814
  Ewald energy   TEWEN  =       520.31908462
  -1/2 Hartree   DENC   =      -739.75246171
  -exchange  EXHF       =         0.00000000
  -V(xc)+E(xc)   XCENC  =        39.84694806
  PAW double counting   =       229.84825738     -231.04033570
  entropy T*S    EENTRO =         0.00061742
  eigenvalues    EBANDS =      -234.26750954
  atomic energy  EATOM  =       369.12624373
  ---------------------------------------------------
  free energy    TOTEN  =       -45.82169760 eV

  energy without entropy =      -45.82231502  energy(sigma->0) =      -45.82190341


--------------------------------------------------------------------------------------------------------




----------------------------------------- Iteration    1(   9)  ---------------------------------------


     EDDAV:  cpu time    0.24: real time    0.24
       DOS:  cpu time    0.00: real time    0.00
    --------------------------------------------
      LOOP:  cpu time    0.24: real time    0.26

 eigenvalue-minimisations  :    32
 total energy-change (2. order) : 0.7456151E-09  (-0.1472293E-10)
 number of electron      14.0000000 magnetization 
 augmentation part       14.0000000 magnetization 

 Free energy of the ion-electron system (eV)
  ---------------------------------------------------
  alpha Z        PSCENC =         0.09745814
  Ewald energy   TEWEN  =       520.31908462
  -1/2 Hartree   DENC   =      -739.75246171
  -exchange  EXHF       =         0.00000000
  -V(xc)+E(xc)   XCENC  =        39.84694806
  PAW double counting   =       229.84825738     -231.04033570
  entropy T*S    EENTRO =         0.00061742
  eigenvalues    EBANDS =      -234.26750954
  atomic energy  EATOM  =       369.12624373
  ---------------------------------------------------
  free energy    TOTEN  =       -45.82169760 eV

  energy without entropy =      -45.82231502  energy(sigma->0) =      -45.82190340


--------------------------------------------------------------------------------------------------------




----------------------------------------- Iteration    1(  10)  ---------------------------------------


     EDDAV:  cpu time    0.15: real time    0.15
       DOS:  cpu time    0.00: real time    0.00
    CHARGE:  cpu time    0.03: real time    0.02
    MIXING:  cpu time    0.01: real time    0.01
    --------------------------------------------
      LOOP:  cpu time    0.18: real time    0.20

 eigenvalue-minimisations  :    16
 total energy-change (2. order) : 0.9180212E-10  (-0.1033829E-11)
 number of electron      13.9999977 magnetization 
 augmentation part        0.3870342 magnetization 

 Broyden mixing:
  rms(total) = 0.10784E+01    rms(broyden)= 0.10781E+01
  rms(prec ) = 0.12066E+01
  weight for this iteration     100.00

 Free energy of the ion-electron system (eV)
  ---------------------------------------------------
  alpha Z        PSCENC =         0.09745814
  Ewald energy   TEWEN  =       520.31908462
  -1/2 Hartree   DENC   =      -739.75246171
  -exchange  EXHF       =         0.00000000
  -V(xc)+E(xc)   XCENC  =        39.84694806
  PAW double counting   =       229.84825738     -231.04033570
  entropy T*S    EENTRO =         0.00061742
  eigenvalues    EBANDS =      -234.26750954
  atomic energy  EATOM  =       369.12624373
  ---------------------------------------------------
  free energy    TOTEN  =       -45.82169760 eV

  energy without entropy =      -45.82231502  energy(sigma->0) =      -45.82190340


--------------------------------------------------------------------------------------------------------




----------------------------------------- Iteration    1(  11)  ---------------------------------------


    POTLOK:  cpu time    0.18: real time    0.18
    SETDIJ:  cpu time    0.00: real time    0.00
    EDDIAG:  cpu time    0.04: real time    0.04
  RMM-DIIS:  cpu time    0.15: real time    0.15
    ORTHCH:  cpu time    0.00: real time    0.00
       DOS:  cpu time    0.00: real time    0.00
    CHARGE:  cpu time    0.02: real time    0.02
    MIXING:  cpu time    0.01: real time    0.01
    --------------------------------------------
      LOOP:  cpu time    0.40: real time    0.43

 eigenvalue-minimisations  :    24
 total energy-change (2. order) : 0.4240562E+01  (-0.8157223E+00)
 number of electron      13.9999976 magnetization 
 augmentation part        0.3510718 magnetization 

 Broyden mixing:
  rms(total) = 0.56085E+00    rms(broyden)= 0.56077E+00
  rms(prec ) = 0.61016E+00
  weight for this iteration     100.00

 eigenvalues of (default mixing * dielectric matrix)
  average eigenvalue GAMMA=   1.4547
  1.4547

 Free energy of the ion-electron system (eV)
  ---------------------------------------------------
  alpha Z        PSCENC =         0.09745814
  Ewald energy   TEWEN  =       520.31908462
  -1/2 Hartree   DENC   =      -773.50237646
  -exchange  EXHF       =         0.00000000
  -V(xc)+E(xc)   XCENC  =        41.65622528
  PAW double counting   =       452.29180042     -453.76863482
  entropy T*S    EENTRO =         0.00066687
  eigenvalues    EBANDS =      -197.80160337
  atomic energy  EATOM  =       369.12624373
  ---------------------------------------------------
  free energy    TOTEN  =       -41.58113559 eV

  energy without entropy =      -41.58180245  energy(sigma->0) =      -41.58135788


--------------------------------------------------------------------------------------------------------




----------------------------------------- Iteration    1(  12)  ---------------------------------------


    POTLOK:  cpu time    0.18: real time    0.18
    SETDIJ:  cpu time    0.00: real time    0.00
    EDDIAG:  cpu time    0.03: real time    0.04
  RMM-DIIS:  cpu time    0.14: real time    0.14
    ORTHCH:  cpu time    0.00: real time    0.00
       DOS:  cpu time    0.00: real time    0.00
    CHARGE:  cpu time    0.02: real time    0.03
    MIXING:  cpu time    0.01: real time    0.01
    --------------------------------------------
      LOOP:  cpu time    0.40: real time    0.43

 eigenvalue-minimisations  :    24
 total energy-change (2. order) : 0.8831189E+00  (-0.2853979E+00)
 number of electron      13.9999975 magnetization 
 augmentation part        0.3313491 magnetization 

 Broyden mixing:
  rms(total) = 0.27221E+00    rms(broyden)= 0.27213E+00
  rms(prec ) = 0.28861E+00
  weight for this iteration     100.00

 eigenvalues of (default mixing * dielectric matrix)
  average eigenvalue GAMMA=   1.8642
  1.6190  2.1093

 Free energy of the ion-electron system (eV)
  ---------------------------------------------------
  alpha Z        PSCENC =         0.09745814
  Ewald energy   TEWEN  =       520.31908462
  -1/2 Hartree   DENC   =      -796.87870836
  -exchange  EXHF       =         0.00000000
  -V(xc)+E(xc)   XCENC  =        43.16579007
  PAW double counting   =       711.64655250     -713.21622319
  entropy T*S    EENTRO =         0.00000000
  eigenvalues    EBANDS =      -174.95821424
  atomic energy  EATOM  =       369.12624373
  ---------------------------------------------------
  free energy    TOTEN  =       -40.69801672 eV

  energy without entropy =      -40.69801672  energy(sigma->0) =      -40.69801672


--------------------------------------------------------------------------------------------------------




----------------------------------------- Iteration    1(  13)  ---------------------------------------


    POTLOK:  cpu time    0.18: real time    0.18
    SETDIJ:  cpu time    0.00: real time    0.00
    EDDIAG:  cpu time    0.04: real time    0.04
  RMM-DIIS:  cpu time    0.14: real time    0.15
    ORTHCH:  cpu time    0.00: real time    0.00
       DOS:  cpu time    0.00: real time    0.00
    CHARGE:  cpu time    0.02: real time    0.03
    MIXING:  cpu time    0.01: real time    0.01
    --------------------------------------------
      LOOP:  cpu time    0.40: real time    0.42

 eigenvalue-minimisations  :    24
 total energy-change (2. order) : 0.2024873E+00  (-0.2893427E-01)
 number of electron      13.9999976 magnetization 
 augmentation part        0.3282370 magnetization 

 Broyden mixing:
  rms(total) = 0.29268E-01    rms(broyden)= 0.29232E-01
  rms(prec ) = 0.44687E-01
  weight for this iteration     100.00

 eigenvalues of (default mixing * dielectric matrix)
  average eigenvalue GAMMA=   1.6512
  1.1761  2.2348  1.5428

 Free energy of the ion-electron system (eV)
  ---------------------------------------------------
  alpha Z        PSCENC =         0.09745814
  Ewald energy   TEWEN  =       520.31908462
  -1/2 Hartree   DENC   =      -805.29091276
  -exchange  EXHF       =         0.00000000
  -V(xc)+E(xc)   XCENC  =        43.90942987
  PAW double counting   =       890.65099152     -892.16366047
  entropy T*S    EENTRO =         0.00000000
  eigenvalues    EBANDS =      -167.14416405
  atomic energy  EATOM  =       369.12624373
  ---------------------------------------------------
  free energy    TOTEN  =       -40.49552941 eV

  energy without entropy =      -40.49552941  energy(sigma->0) =      -40.49552941


--------------------------------------------------------------------------------------------------------




----------------------------------------- Iteration    1(  14)  ---------------------------------------


    POTLOK:  cpu time    0.18: real time    0.18
    SETDIJ:  cpu time    0.00: real time    0.00
    EDDIAG:  cpu time    0.04: real time    0.04
  RMM-DIIS:  cpu time    0.15: real time    0.15
    ORTHCH:  cpu time    0.00: real time    0.00
       DOS:  cpu time    0.00: real time    0.00
    CHARGE:  cpu time    0.02: real time    0.03
    MIXING:  cpu time    0.01: real time    0.01
    --------------------------------------------
      LOOP:  cpu time    0.40: real time    0.42

 eigenvalue-minimisations  :    24
 total energy-change (2. order) : 0.1220279E-01  (-0.2872090E-02)
 number of electron      13.9999976 magnetization 
 augmentation part        0.3267904 magnetization 

 Broyden mixing:
  rms(total) = 0.21970E-01    rms(broyden)= 0.21964E-01
  rms(prec ) = 0.32423E-01
  weight for this iteration     100.00

 eigenvalues of (default mixing * dielectric matrix)
  average eigenvalue GAMMA=   1.9326
  1.0358  1.4396  2.6275  2.6275

 Free energy of the ion-electron system (eV)
  ---------------------------------------------------
  alpha Z        PSCENC =         0.09745814
  Ewald energy   TEWEN  =       520.31908462
  -1/2 Hartree   DENC   =      -808.12762498
  -exchange  EXHF       =         0.00000000
  -V(xc)+E(xc)   XCENC  =        44.04034782
  PAW double counting   =       903.89532313     -905.40977979
  entropy T*S    EENTRO =         0.00065146
  eigenvalues    EBANDS =      -164.42503076
  atomic energy  EATOM  =       369.12624373
  ---------------------------------------------------
  free energy    TOTEN  =       -40.48332662 eV

  energy without entropy =      -40.48397808  energy(sigma->0) =      -40.48354377


--------------------------------------------------------------------------------------------------------




----------------------------------------- Iteration    1(  15)  ---------------------------------------


    POTLOK:  cpu time    0.18: real time    0.18
    SETDIJ:  cpu time    0.00: real time    0.00
    EDDIAG:  cpu time    0.03: real time    0.04
  RMM-DIIS:  cpu time    0.15: real time    0.15
    ORTHCH:  cpu time    0.00: real time    0.00
       DOS:  cpu time    0.00: real time    0.00
    CHARGE:  cpu time    0.02: real time    0.03
    MIXING:  cpu time    0.01: real time    0.01
    --------------------------------------------
      LOOP:  cpu time    0.40: real time    0.43

 eigenvalue-minimisations  :    24
 total energy-change (2. order) : 0.5323672E-02  (-0.1691023E-02)
 number of electron      13.9999976 magnetization 
 augmentation part        0.3257330 magnetization 

 Broyden mixing:
  rms(total) = 0.23909E-01    rms(broyden)= 0.23878E-01
  rms(prec ) = 0.28267E-01
  weight for this iteration     100.00

 eigenvalues of (default mixing * dielectric matrix)
  average eigenvalue GAMMA=   1.5509
  2.6300  2.6300  1.0350  1.4407  0.0188

 Free energy of the ion-electron system (eV)
  ---------------------------------------------------
  alpha Z        PSCENC =         0.09745814
  Ewald energy   TEWEN  =       520.31908462
  -1/2 Hartree   DENC   =      -811.18963049
  -exchange  EXHF       =         0.00000000
  -V(xc)+E(xc)   XCENC  =        44.10324100
  PAW double counting   =       887.68470883     -889.19658165
  entropy T*S    EENTRO =         0.00117522
  eigenvalues    EBANDS =      -161.42370236
  atomic energy  EATOM  =       369.12624373
  ---------------------------------------------------
  free energy    TOTEN  =       -40.47800295 eV

  energy without entropy =      -40.47917817  energy(sigma->0) =      -40.47839469


--------------------------------------------------------------------------------------------------------




----------------------------------------- Iteration    1(  16)  ---------------------------------------


    POTLOK:  cpu time    0.18: real time    0.18
    SETDIJ:  cpu time    0.00: real time    0.00
    EDDIAG:  cpu time    0.04: real time    0.04
  RMM-DIIS:  cpu time    0.15: real time    0.15
    ORTHCH:  cpu time    0.00: real time    0.00
       DOS:  cpu time    0.00: real time    0.00
    CHARGE:  cpu time    0.02: real time    0.03
    MIXING:  cpu time    0.01: real time    0.01
    --------------------------------------------
      LOOP:  cpu time    0.41: real time    0.43

 eigenvalue-minimisations  :    24
 total energy-change (2. order) : 0.1891471E-03  (-0.6932940E-04)
 number of electron      13.9999976 magnetization 
 augmentation part        0.3254655 magnetization 

 Broyden mixing:
  rms(total) = 0.27521E-01    rms(broyden)= 0.27515E-01
  rms(prec ) = 0.31948E-01
  weight for this iteration     100.00

 eigenvalues of (default mixing * dielectric matrix)
  average eigenvalue GAMMA=   1.5179
  2.9407  2.1380  1.0943  1.3551  1.3551  0.2242

 Free energy of the ion-electron system (eV)
  ---------------------------------------------------
  alpha Z        PSCENC =         0.09745814
  Ewald energy   TEWEN  =       520.31908462
  -1/2 Hartree   DENC   =      -811.20207807
  -exchange  EXHF       =         0.00000000
  -V(xc)+E(xc)   XCENC  =        44.10434805
  PAW double counting   =       888.01172974     -889.52336426
  entropy T*S    EENTRO =         0.00127097
  eigenvalues    EBANDS =      -161.41250673
  atomic energy  EATOM  =       369.12624373
  ---------------------------------------------------
  free energy    TOTEN  =       -40.47781380 eV

  energy without entropy =      -40.47908478  energy(sigma->0) =      -40.47823746


--------------------------------------------------------------------------------------------------------




----------------------------------------- Iteration    1(  17)  ---------------------------------------


    POTLOK:  cpu time    0.18: real time    0.18
    SETDIJ:  cpu time    0.00: real time    0.00
    EDDIAG:  cpu time    0.03: real time    0.04
  RMM-DIIS:  cpu time    0.15: real time    0.15
    ORTHCH:  cpu time    0.00: real time    0.00
       DOS:  cpu time    0.00: real time    0.00
    CHARGE:  cpu time    0.02: real time    0.03
    MIXING:  cpu time    0.01: real time    0.01
    --------------------------------------------
      LOOP:  cpu time    0.41: real time    0.43

 eigenvalue-minimisations  :    24
 total energy-change (2. order) : 0.2142556E-02  (-0.1783873E-03)
 number of electron      13.9999976 magnetization 
 augmentation part        0.3252091 magnetization 

 Broyden mixing:
  rms(total) = 0.10609E-01    rms(broyden)= 0.10514E-01
  rms(prec ) = 0.14244E-01
  weight for this iteration     100.00

 eigenvalues of (default mixing * dielectric matrix)
  average eigenvalue GAMMA=   1.5965
  3.0029  2.3796  2.3796  1.5819  0.9741  0.6432  0.2141

 Free energy of the ion-electron system (eV)
  ---------------------------------------------------
  alpha Z        PSCENC =         0.09745814
  Ewald energy   TEWEN  =       520.31908462
  -1/2 Hartree   DENC   =      -812.41829806
  -exchange  EXHF       =         0.00000000
  -V(xc)+E(xc)   XCENC  =        44.17062119
  PAW double counting   =       900.61692411     -902.12666690
  entropy T*S    EENTRO =         0.00000000
  eigenvalues    EBANDS =      -160.26103808
  atomic energy  EATOM  =       369.12624373
  ---------------------------------------------------
  free energy    TOTEN  =       -40.47567125 eV

  energy without entropy =      -40.47567125  energy(sigma->0) =      -40.47567125


--------------------------------------------------------------------------------------------------------




----------------------------------------- Iteration    1(  18)  ---------------------------------------


    POTLOK:  cpu time    0.18: real time    0.18
    SETDIJ:  cpu time    0.00: real time    0.00
    EDDIAG:  cpu time    0.04: real time    0.04
  RMM-DIIS:  cpu time    0.15: real time    0.15
    ORTHCH:  cpu time    0.00: real time    0.00
       DOS:  cpu time    0.00: real time    0.00
    CHARGE:  cpu time    0.02: real time    0.02
    MIXING:  cpu time    0.01: real time    0.01
    --------------------------------------------
      LOOP:  cpu time    0.41: real time    0.43

 eigenvalue-minimisations  :    24
 total energy-change (2. order) :-0.6360252E-02  (-0.9569952E-03)
 number of electron      13.9999976 magnetization 
 augmentation part        0.3258120 magnetization 

 Broyden mixing:
  rms(total) = 0.26425E-01    rms(broyden)= 0.26401E-01
  rms(prec ) = 0.29038E-01
  weight for this iteration     100.00

 eigenvalues of (default mixing * dielectric matrix)
  average eigenvalue GAMMA=   1.6563
  4.2828  2.5009  1.9911  1.3246  1.3246  0.9649  0.6450  0.2166

 Free energy of the ion-electron system (eV)
  ---------------------------------------------------
  alpha Z        PSCENC =         0.09745814
  Ewald energy   TEWEN  =       520.31908462
  -1/2 Hartree   DENC   =      -812.69983837
  -exchange  EXHF       =         0.00000000
  -V(xc)+E(xc)   XCENC  =        44.15995382
  PAW double counting   =       895.05086486     -896.55408054
  entropy T*S    EENTRO =         0.00123212
  eigenvalues    EBANDS =      -159.98294988
  atomic energy  EATOM  =       369.12624373
  ---------------------------------------------------
  free energy    TOTEN  =       -40.48203150 eV

  energy without entropy =      -40.48326362  energy(sigma->0) =      -40.48244220


--------------------------------------------------------------------------------------------------------




----------------------------------------- Iteration    1(  19)  ---------------------------------------


    POTLOK:  cpu time    0.18: real time    0.18
    SETDIJ:  cpu time    0.00: real time    0.00
    EDDIAG:  cpu time    0.04: real time    0.04
  RMM-DIIS:  cpu time    0.15: real time    0.15
    ORTHCH:  cpu time    0.00: real time    0.00
       DOS:  cpu time    0.00: real time    0.00
    CHARGE:  cpu time    0.02: real time    0.02
    MIXING:  cpu time    0.01: real time    0.01
    --------------------------------------------
      LOOP:  cpu time    0.41: real time    0.43

 eigenvalue-minimisations  :    24
 total energy-change (2. order) :-0.1388742E-02  (-0.1116765E-02)
 number of electron      13.9999976 magnetization 
 augmentation part        0.3249252 magnetization 

 Broyden mixing:
  rms(total) = 0.10019E-01    rms(broyden)= 0.99659E-02
  rms(prec ) = 0.11657E-01
  weight for this iteration     100.00

 eigenvalues of (default mixing * dielectric matrix)
  average eigenvalue GAMMA=   1.8955
  4.1860  4.1860  2.2432  2.2432  1.2625  0.9975  1.1614  0.5627  0.2167

 Free energy of the ion-electron system (eV)
  ---------------------------------------------------
  alpha Z        PSCENC =         0.09745814
  Ewald energy   TEWEN  =       520.31908462
  -1/2 Hartree   DENC   =      -813.82047898
  -exchange  EXHF       =         0.00000000
  -V(xc)+E(xc)   XCENC  =        44.17793802
  PAW double counting   =       889.29491922     -890.80685339
  entropy T*S    EENTRO =         0.00069991
  eigenvalues    EBANDS =      -158.87243150
  atomic energy  EATOM  =       369.12624373
  ---------------------------------------------------
  free energy    TOTEN  =       -40.48342024 eV

  energy without entropy =      -40.48412015  energy(sigma->0) =      -40.48365354


--------------------------------------------------------------------------------------------------------




----------------------------------------- Iteration    1(  20)  ---------------------------------------


    POTLOK:  cpu time    0.19: real time    0.19
    SETDIJ:  cpu time    0.00: real time    0.00
    EDDIAG:  cpu time    0.04: real time    0.04
  RMM-DIIS:  cpu time    0.15: real time    0.15
    ORTHCH:  cpu time    0.00: real time    0.00
       DOS:  cpu time    0.00: real time    0.00
    CHARGE:  cpu time    0.02: real time    0.03
    MIXING:  cpu time    0.01: real time    0.01
    --------------------------------------------
      LOOP:  cpu time    0.41: real time    0.43

 eigenvalue-minimisations  :    24
 total energy-change (2. order) :-0.7474972E-02  (-0.4059530E-03)
 number of electron      13.9999976 magnetization 
 augmentation part        0.3252243 magnetization 

 Broyden mixing:
  rms(total) = 0.29515E-02    rms(broyden)= 0.29260E-02
  rms(prec ) = 0.34772E-02
  weight for this iteration     100.00

 eigenvalues of (default mixing * dielectric matrix)
  average eigenvalue GAMMA=   1.8931
  5.7012  3.3743  2.4851  1.6910  1.4486  1.4486  0.9965  0.9965  0.5730  0.2167

 Free energy of the ion-electron system (eV)
  ---------------------------------------------------
  alpha Z        PSCENC =         0.09745814
  Ewald energy   TEWEN  =       520.31908462
  -1/2 Hartree   DENC   =      -813.58714150
  -exchange  EXHF       =         0.00000000
  -V(xc)+E(xc)   XCENC  =        44.15267277
  PAW double counting   =       889.28861253     -890.79523542
  entropy T*S    EENTRO =         0.00058273
  eigenvalues    EBANDS =      -159.09317280
  atomic energy  EATOM  =       369.12624373
  ---------------------------------------------------
  free energy    TOTEN  =       -40.49089521 eV

  energy without entropy =      -40.49147794  energy(sigma->0) =      -40.49108946


--------------------------------------------------------------------------------------------------------




----------------------------------------- Iteration    1(  21)  ---------------------------------------


    POTLOK:  cpu time    0.19: real time    0.19
    SETDIJ:  cpu time    0.00: real time    0.00
    EDDIAG:  cpu time    0.04: real time    0.04
  RMM-DIIS:  cpu time    0.15: real time    0.15
    ORTHCH:  cpu time    0.00: real time    0.00
       DOS:  cpu time    0.00: real time    0.00
    CHARGE:  cpu time    0.02: real time    0.03
    MIXING:  cpu time    0.01: real time    0.01
    --------------------------------------------
      LOOP:  cpu time    0.41: real time    0.44

 eigenvalue-minimisations  :    24
 total energy-change (2. order) :-0.7400303E-03  (-0.2336108E-04)
 number of electron      13.9999976 magnetization 
 augmentation part        0.3252696 magnetization 

 Broyden mixing:
  rms(total) = 0.36216E-02    rms(broyden)= 0.36200E-02
  rms(prec ) = 0.40187E-02
  weight for this iteration     100.00

 eigenvalues of (default mixing * dielectric matrix)
  average eigenvalue GAMMA=   2.0786
  6.3974  4.0239  2.7381  2.2687  2.2687  1.3519  1.0021  1.0128  1.0128  0.5712
  0.2167

 Free energy of the ion-electron system (eV)
  ---------------------------------------------------
  alpha Z        PSCENC =         0.09745814
  Ewald energy   TEWEN  =       520.31908462
  -1/2 Hartree   DENC   =      -813.76169259
  -exchange  EXHF       =         0.00000000
  -V(xc)+E(xc)   XCENC  =        44.15887313
  PAW double counting   =       889.97907360     -891.48589043
  entropy T*S    EENTRO =         0.00058182
  eigenvalues    EBANDS =      -158.92536725
  atomic energy  EATOM  =       369.12624373
  ---------------------------------------------------
  free energy    TOTEN  =       -40.49163524 eV

  energy without entropy =      -40.49221706  energy(sigma->0) =      -40.49182918


--------------------------------------------------------------------------------------------------------




----------------------------------------- Iteration    1(  22)  ---------------------------------------


    POTLOK:  cpu time    0.19: real time    0.19
    SETDIJ:  cpu time    0.00: real time    0.00
    EDDIAG:  cpu time    0.03: real time    0.04
  RMM-DIIS:  cpu time    0.14: real time    0.14
    ORTHCH:  cpu time    0.00: real time    0.00
       DOS:  cpu time    0.00: real time    0.00
    CHARGE:  cpu time    0.02: real time    0.03
    MIXING:  cpu time    0.02: real time    0.02
    --------------------------------------------
      LOOP:  cpu time    0.41: real time    0.43

 eigenvalue-minimisations  :    24
 total energy-change (2. order) :-0.1563885E-02  (-0.3643933E-04)
 number of electron      13.9999976 magnetization 
 augmentation part        0.3251639 magnetization 

 Broyden mixing:
  rms(total) = 0.34708E-02    rms(broyden)= 0.34707E-02
  rms(prec ) = 0.38197E-02
  weight for this iteration     100.00

 eigenvalues of (default mixing * dielectric matrix)
  average eigenvalue GAMMA=   2.1241
  7.1311  4.7894  2.7629  2.4204  1.6528  1.6528  1.2374  0.9701  1.0424  1.0424
  0.5710  0.2167

 Free energy of the ion-electron system (eV)
  ---------------------------------------------------
  alpha Z        PSCENC =         0.09745814
  Ewald energy   TEWEN  =       520.31908462
  -1/2 Hartree   DENC   =      -813.90387023
  -exchange  EXHF       =         0.00000000
  -V(xc)+E(xc)   XCENC  =        44.15834473
  PAW double counting   =       888.96081600     -890.46910139
  entropy T*S    EENTRO =         0.00058034
  eigenvalues    EBANDS =      -158.78275507
  atomic energy  EATOM  =       369.12624373
  ---------------------------------------------------
  free energy    TOTEN  =       -40.49319913 eV

  energy without entropy =      -40.49377947  energy(sigma->0) =      -40.49339257


--------------------------------------------------------------------------------------------------------




----------------------------------------- Iteration    1(  23)  ---------------------------------------


    POTLOK:  cpu time    0.19: real time    0.19
    SETDIJ:  cpu time    0.00: real time    0.00
    EDDIAG:  cpu time    0.04: real time    0.04
  RMM-DIIS:  cpu time    0.15: real time    0.15
    ORTHCH:  cpu time    0.00: real time    0.00
       DOS:  cpu time    0.00: real time    0.00
    CHARGE:  cpu time    0.02: real time    0.03
    MIXING:  cpu time    0.02: real time    0.02
    --------------------------------------------
      LOOP:  cpu time    0.41: real time    0.44

 eigenvalue-minimisations  :    24
 total energy-change (2. order) :-0.2813221E-03  (-0.6509269E-05)
 number of electron      13.9999976 magnetization 
 augmentation part        0.3251814 magnetization 

 Broyden mixing:
  rms(total) = 0.37898E-02    rms(broyden)= 0.37898E-02
  rms(prec ) = 0.41440E-02
  weight for this iteration     100.00

 eigenvalues of (default mixing * dielectric matrix)
  average eigenvalue GAMMA=   2.1410
  7.5428  4.9873  3.1044  2.4060  1.8458  1.8458  0.2167  1.3616  1.0617  1.0617
  0.9895  0.5713  0.8386

 Free energy of the ion-electron system (eV)
  ---------------------------------------------------
  alpha Z        PSCENC =         0.09745814
  Ewald energy   TEWEN  =       520.31908462
  -1/2 Hartree   DENC   =      -813.84890523
  -exchange  EXHF       =         0.00000000
  -V(xc)+E(xc)   XCENC  =        44.15507633
  PAW double counting   =       889.08460166     -890.59216755
  entropy T*S    EENTRO =         0.00057990
  eigenvalues    EBANDS =      -158.83545206
  atomic energy  EATOM  =       369.12624373
  ---------------------------------------------------
  free energy    TOTEN  =       -40.49348045 eV

  energy without entropy =      -40.49406035  energy(sigma->0) =      -40.49367375


--------------------------------------------------------------------------------------------------------




----------------------------------------- Iteration    1(  24)  ---------------------------------------


    POTLOK:  cpu time    0.19: real time    0.18
    SETDIJ:  cpu time    0.00: real time    0.00
    EDDIAG:  cpu time    0.03: real time    0.04
  RMM-DIIS:  cpu time    0.15: real time    0.15
    ORTHCH:  cpu time    0.00: real time    0.00
       DOS:  cpu time    0.00: real time    0.00
    CHARGE:  cpu time    0.02: real time    0.03
    MIXING:  cpu time    0.02: real time    0.02
    --------------------------------------------
      LOOP:  cpu time    0.41: real time    0.43

 eigenvalue-minimisations  :    24
 total energy-change (2. order) :-0.2736387E-03  (-0.4133366E-05)
 number of electron      13.9999976 magnetization 
 augmentation part        0.3251456 magnetization 

 Broyden mixing:
  rms(total) = 0.49314E-02    rms(broyden)= 0.49314E-02
  rms(prec ) = 0.53871E-02
  weight for this iteration     100.00

 eigenvalues of (default mixing * dielectric matrix)
  average eigenvalue GAMMA=   2.1764
  7.6446  5.0240  3.0499  2.3407  2.0867  2.0867  1.8762  0.2167  1.4439  1.0386
  1.0386  1.0758  0.9760  0.5712

 Free energy of the ion-electron system (eV)
  ---------------------------------------------------
  alpha Z        PSCENC =         0.09745814
  Ewald energy   TEWEN  =       520.31908462
  -1/2 Hartree   DENC   =      -813.91532060
  -exchange  EXHF       =         0.00000000
  -V(xc)+E(xc)   XCENC  =        44.15723942
  PAW double counting   =       889.49658333     -891.00460489
  entropy T*S    EENTRO =         0.00057980
  eigenvalues    EBANDS =      -158.77101765
  atomic energy  EATOM  =       369.12624373
  ---------------------------------------------------
  free energy    TOTEN  =       -40.49375409 eV

  energy without entropy =      -40.49433389  energy(sigma->0) =      -40.49394735


--------------------------------------------------------------------------------------------------------




----------------------------------------- Iteration    1(  25)  ---------------------------------------


    POTLOK:  cpu time    0.18: real time    0.18
    SETDIJ:  cpu time    0.00: real time    0.00
    EDDIAG:  cpu time    0.04: real time    0.04
  RMM-DIIS:  cpu time    0.15: real time    0.15
    ORTHCH:  cpu time    0.00: real time    0.00
       DOS:  cpu time    0.00: real time    0.00
    CHARGE:  cpu time    0.02: real time    0.03
    MIXING:  cpu time    0.02: real time    0.02
    --------------------------------------------
      LOOP:  cpu time    0.41: real time    0.44

 eigenvalue-minimisations  :    24
 total energy-change (2. order) :-0.1301922E-03  (-0.3207550E-05)
 number of electron      13.9999976 magnetization 
 augmentation part        0.3251181 magnetization 

 Broyden mixing:
  rms(total) = 0.62126E-02    rms(broyden)= 0.62125E-02
  rms(prec ) = 0.67846E-02
  weight for this iteration     100.00

 eigenvalues of (default mixing * dielectric matrix)
  average eigenvalue GAMMA=   2.0370
  7.6477  5.0259  3.0658  2.3365  2.0294  2.0294  1.8923  1.4390  1.0723  0.9756
  1.0379  1.0379  0.5712  0.2167  0.1775

 Free energy of the ion-electron system (eV)
  ---------------------------------------------------
  alpha Z        PSCENC =         0.09745814
  Ewald energy   TEWEN  =       520.31908462
  -1/2 Hartree   DENC   =      -813.94066209
  -exchange  EXHF       =         0.00000000
  -V(xc)+E(xc)   XCENC  =        44.15800054
  PAW double counting   =       889.78906595     -891.29726160
  entropy T*S    EENTRO =         0.00057979
  eigenvalues    EBANDS =      -158.74639336
  atomic energy  EATOM  =       369.12624373
  ---------------------------------------------------
  free energy    TOTEN  =       -40.49388428 eV

  energy without entropy =      -40.49446407  energy(sigma->0) =      -40.49407754


--------------------------------------------------------------------------------------------------------




----------------------------------------- Iteration    1(  26)  ---------------------------------------


    POTLOK:  cpu time    0.18: real time    0.18
    SETDIJ:  cpu time    0.00: real time    0.00
    EDDIAG:  cpu time    0.04: real time    0.04
  RMM-DIIS:  cpu time    0.14: real time    0.15
    ORTHCH:  cpu time    0.00: real time    0.00
       DOS:  cpu time    0.00: real time    0.00
    CHARGE:  cpu time    0.02: real time    0.03
    MIXING:  cpu time    0.02: real time    0.02
    --------------------------------------------
      LOOP:  cpu time    0.41: real time    0.43

 eigenvalue-minimisations  :    24
 total energy-change (2. order) :-0.1171759E-03  (-0.3921514E-05)
 number of electron      13.9999976 magnetization 
 augmentation part        0.3251045 magnetization 

 Broyden mixing:
  rms(total) = 0.77440E-02    rms(broyden)= 0.77439E-02
  rms(prec ) = 0.84499E-02
  weight for this iteration     100.00

 eigenvalues of (default mixing * dielectric matrix)
  average eigenvalue GAMMA=   2.5942
  7.5080  8.1785  5.4435  3.6253  2.6166  2.6166  2.3468  1.9547  0.2167  1.4183
  0.5712  1.0430  1.0430  1.0334  0.9710  0.9204

 Free energy of the ion-electron system (eV)
  ---------------------------------------------------
  alpha Z        PSCENC =         0.09745814
  Ewald energy   TEWEN  =       520.31908462
  -1/2 Hartree   DENC   =      -813.95118939
  -exchange  EXHF       =         0.00000000
  -V(xc)+E(xc)   XCENC  =        44.15811738
  PAW double counting   =       890.02046925     -891.52870841
  entropy T*S    EENTRO =         0.00057979
  eigenvalues    EBANDS =      -158.73605658
  atomic energy  EATOM  =       369.12624373
  ---------------------------------------------------
  free energy    TOTEN  =       -40.49400146 eV

  energy without entropy =      -40.49458125  energy(sigma->0) =      -40.49419472


--------------------------------------------------------------------------------------------------------




----------------------------------------- Iteration    1(  27)  ---------------------------------------


    POTLOK:  cpu time    0.18: real time    0.18
    SETDIJ:  cpu time    0.00: real time    0.00
    EDDIAG:  cpu time    0.03: real time    0.04
  RMM-DIIS:  cpu time    0.15: real time    0.15
    ORTHCH:  cpu time    0.00: real time    0.00
       DOS:  cpu time    0.00: real time    0.00
    CHARGE:  cpu time    0.02: real time    0.03
    MIXING:  cpu time    0.02: real time    0.02
    --------------------------------------------
      LOOP:  cpu time    0.42: real time    0.44

 eigenvalue-minimisations  :    24
 total energy-change (2. order) : 0.1142422E-03  (-0.5303326E-05)
 number of electron      13.9999976 magnetization 
 augmentation part        0.3251284 magnetization 

 Broyden mixing:
  rms(total) = 0.57061E-02    rms(broyden)= 0.57061E-02
  rms(prec ) = 0.62290E-02
  weight for this iteration     100.00

 eigenvalues of (default mixing * dielectric matrix)
  average eigenvalue GAMMA=   2.3962
  8.1944  6.3421  5.4382  3.6675  2.5673  2.5673  2.3839  1.9571  1.4194  1.0435
  1.0435  1.0316  0.9707  0.9406  0.5712  0.2167  0.3813

 Free energy of the ion-electron system (eV)
  ---------------------------------------------------
  alpha Z        PSCENC =         0.09745814
  Ewald energy   TEWEN  =       520.31908462
  -1/2 Hartree   DENC   =      -813.92001754
  -exchange  EXHF       =         0.00000000
  -V(xc)+E(xc)   XCENC  =        44.15694688
  PAW double counting   =       889.69569539     -891.20367690
  entropy T*S    EENTRO =         0.00057979
  eigenvalues    EBANDS =      -158.76620132
  atomic energy  EATOM  =       369.12624373
  ---------------------------------------------------
  free energy    TOTEN  =       -40.49388721 eV

  energy without entropy =      -40.49446701  energy(sigma->0) =      -40.49408048


--------------------------------------------------------------------------------------------------------




----------------------------------------- Iteration    1(  28)  ---------------------------------------


    POTLOK:  cpu time    0.18: real time    0.18
    SETDIJ:  cpu time    0.00: real time    0.00
    EDDIAG:  cpu time    0.03: real time    0.04
  RMM-DIIS:  cpu time    0.15: real time    0.15
    ORTHCH:  cpu time    0.00: real time    0.00
       DOS:  cpu time    0.00: real time    0.00
    CHARGE:  cpu time    0.02: real time    0.03
    MIXING:  cpu time    0.02: real time    0.02
    --------------------------------------------
      LOOP:  cpu time    0.41: real time    0.44

 eigenvalue-minimisations  :    24
 total energy-change (2. order) : 0.3155829E-04  (-0.1791385E-05)
 number of electron      13.9999976 magnetization 
 augmentation part        0.3251472 magnetization 

 Broyden mixing:
  rms(total) = 0.48147E-02    rms(broyden)= 0.48147E-02
  rms(prec ) = 0.52509E-02
  weight for this iteration     100.00

 eigenvalues of (default mixing * dielectric matrix)
  average eigenvalue GAMMA=   2.6065
  8.9120  8.5571  5.8937  4.3546  3.1358  2.4917  0.2167  2.1119  1.7949  1.7949
  1.4172  1.0374  1.0374  1.0363  0.9727  0.9727  0.5712  0.6081

 Free energy of the ion-electron system (eV)
  ---------------------------------------------------
  alpha Z        PSCENC =         0.09745814
  Ewald energy   TEWEN  =       520.31908462
  -1/2 Hartree   DENC   =      -813.90605822
  -exchange  EXHF       =         0.00000000
  -V(xc)+E(xc)   XCENC  =        44.15640709
  PAW double counting   =       889.56796385     -891.07581537
  entropy T*S    EENTRO =         0.00057981
  eigenvalues    EBANDS =      -158.77971930
  atomic energy  EATOM  =       369.12624373
  ---------------------------------------------------
  free energy    TOTEN  =       -40.49385565 eV

  energy without entropy =      -40.49443546  energy(sigma->0) =      -40.49404892


--------------------------------------------------------------------------------------------------------




----------------------------------------- Iteration    1(  29)  ---------------------------------------


    POTLOK:  cpu time    0.18: real time    0.18
    SETDIJ:  cpu time    0.00: real time    0.00
    EDDIAG:  cpu time    0.03: real time    0.04
  RMM-DIIS:  cpu time    0.15: real time    0.15
    ORTHCH:  cpu time    0.00: real time    0.00
       DOS:  cpu time    0.00: real time    0.00
    CHARGE:  cpu time    0.02: real time    0.03
    MIXING:  cpu time    0.02: real time    0.02
    --------------------------------------------
      LOOP:  cpu time    0.42: real time    0.44

 eigenvalue-minimisations  :    24
 total energy-change (2. order) : 0.4223167E-04  (-0.8542393E-05)
 number of electron      13.9999976 magnetization 
 augmentation part        0.3251651 magnetization 

 Broyden mixing:
  rms(total) = 0.24942E-02    rms(broyden)= 0.24940E-02
  rms(prec ) = 0.27244E-02
  weight for this iteration     100.00

 eigenvalues of (default mixing * dielectric matrix)
  average eigenvalue GAMMA=   2.6426
  9.8569  8.8567  6.1717  4.5126  3.3517  2.5303  2.3436  1.9387  1.9387  0.2167
  1.3968  0.5712  1.0362  1.0362  1.0161  0.9399  0.9174  0.7893  0.7893

 Free energy of the ion-electron system (eV)
  ---------------------------------------------------
  alpha Z        PSCENC =         0.09745814
  Ewald energy   TEWEN  =       520.31908462
  -1/2 Hartree   DENC   =      -813.89524349
  -exchange  EXHF       =         0.00000000
  -V(xc)+E(xc)   XCENC  =        44.15597215
  PAW double counting   =       889.24986239     -890.75760243
  entropy T*S    EENTRO =         0.00058212
  eigenvalues    EBANDS =      -158.79017066
  atomic energy  EATOM  =       369.12624373
  ---------------------------------------------------
  free energy    TOTEN  =       -40.49381342 eV

  energy without entropy =      -40.49439555  energy(sigma->0) =      -40.49400746


--------------------------------------------------------------------------------------------------------




----------------------------------------- Iteration    1(  30)  ---------------------------------------


    POTLOK:  cpu time    0.19: real time    0.19
    SETDIJ:  cpu time    0.00: real time    0.00
    EDDIAG:  cpu time    0.04: real time    0.04
  RMM-DIIS:  cpu time    0.14: real time    0.15
    ORTHCH:  cpu time    0.00: real time    0.00
       DOS:  cpu time    0.00: real time    0.00
    CHARGE:  cpu time    0.02: real time    0.03
    MIXING:  cpu time    0.02: real time    0.02
    --------------------------------------------
      LOOP:  cpu time    0.42: real time    0.45

 eigenvalue-minimisations  :    24
 total energy-change (2. order) :-0.2386493E-05  (-0.4994725E-05)
 number of electron      13.9999976 magnetization 
 augmentation part        0.3251906 magnetization 

 Broyden mixing:
  rms(total) = 0.13958E-02    rms(broyden)= 0.13951E-02
  rms(prec ) = 0.15170E-02
  weight for this iteration     100.00

 eigenvalues of (default mixing * dielectric matrix)
  average eigenvalue GAMMA=   2.7004
 10.5398  9.1301  6.5178  4.7366  3.6591  2.7755  2.3755  0.2167  1.8773  1.7695
  1.7695  1.4163  1.1115  1.0384  1.0384  0.9893  0.9313  0.9313  0.5712  0.6120

 Free energy of the ion-electron system (eV)
  ---------------------------------------------------
  alpha Z        PSCENC =         0.09745814
  Ewald energy   TEWEN  =       520.31908462
  -1/2 Hartree   DENC   =      -813.87268706
  -exchange  EXHF       =         0.00000000
  -V(xc)+E(xc)   XCENC  =        44.15504470
  PAW double counting   =       888.98592667     -890.49346943
  entropy T*S    EENTRO =         0.00060652
  eigenvalues    EBANDS =      -158.81202370
  atomic energy  EATOM  =       369.12624373
  ---------------------------------------------------
  free energy    TOTEN  =       -40.49381581 eV

  energy without entropy =      -40.49442233  energy(sigma->0) =      -40.49401798


--------------------------------------------------------------------------------------------------------




----------------------------------------- Iteration    1(  31)  ---------------------------------------


    POTLOK:  cpu time    0.19: real time    0.19
    SETDIJ:  cpu time    0.00: real time    0.00
    EDDIAG:  cpu time    0.04: real time    0.04
  RMM-DIIS:  cpu time    0.15: real time    0.15
    ORTHCH:  cpu time    0.00: real time    0.00
       DOS:  cpu time    0.00: real time    0.00
    CHARGE:  cpu time    0.02: real time    0.03
    MIXING:  cpu time    0.03: real time    0.03
    --------------------------------------------
      LOOP:  cpu time    0.43: real time    0.45

 eigenvalue-minimisations  :    24
 total energy-change (2. order) :-0.5940631E-03  (-0.1694601E-05)
 number of electron      13.9999976 magnetization 
 augmentation part        0.3252040 magnetization 

 Broyden mixing:
  rms(total) = 0.13279E-03    rms(broyden)= 0.12960E-03
  rms(prec ) = 0.13577E-03
  weight for this iteration     100.00

 eigenvalues of (default mixing * dielectric matrix)
  average eigenvalue GAMMA=   2.6510
 10.7581  9.2162  6.6930  4.7950  3.7954  2.7113  2.4332  1.9854  1.9854  0.2167
  1.6869  1.3749  1.2277  1.0416  1.0416  1.0026  0.9636  0.9438  0.5712  0.6132
  0.6132

 Free energy of the ion-electron system (eV)
  ---------------------------------------------------
  alpha Z        PSCENC =         0.09745814
  Ewald energy   TEWEN  =       520.31908462
  -1/2 Hartree   DENC   =      -813.86444367
  -exchange  EXHF       =         0.00000000
  -V(xc)+E(xc)   XCENC  =        44.15470484
  PAW double counting   =       888.87423107     -890.38170585
  entropy T*S    EENTRO =         0.00000000
  eigenvalues    EBANDS =      -158.81998277
  atomic energy  EATOM  =       369.12624373
  ---------------------------------------------------
  free energy    TOTEN  =       -40.49440987 eV

  energy without entropy =      -40.49440987  energy(sigma->0) =      -40.49440987


--------------------------------------------------------------------------------------------------------




----------------------------------------- Iteration    1(  32)  ---------------------------------------


    POTLOK:  cpu time    0.20: real time    0.20
    SETDIJ:  cpu time    0.00: real time    0.00
    EDDIAG:  cpu time    0.04: real time    0.04
  RMM-DIIS:  cpu time    0.13: real time    0.13
    ORTHCH:  cpu time    0.00: real time    0.00
       DOS:  cpu time    0.00: real time    0.00
    CHARGE:  cpu time    0.02: real time    0.02
    MIXING:  cpu time    0.03: real time    0.03
    --------------------------------------------
      LOOP:  cpu time    0.43: real time    0.45

 eigenvalue-minimisations  :    21
 total energy-change (2. order) :-0.7052286E-05  (-0.4165828E-06)
 number of electron      13.9999976 magnetization 
 augmentation part        0.3252112 magnetization 

 Broyden mixing:
  rms(total) = 0.36801E-03    rms(broyden)= 0.36786E-03
  rms(prec ) = 0.40590E-03
  weight for this iteration     100.00

 eigenvalues of (default mixing * dielectric matrix)
  average eigenvalue GAMMA=   2.6112
 10.6921  9.3008  6.7784  4.9102  3.8445  2.8835  2.3545  2.3545  0.2167  1.9021
  1.4464  1.4112  1.4112  1.0485  1.0485  0.9997  0.9997  0.9911  0.5712  0.8414
  0.8414  0.5981

 Free energy of the ion-electron system (eV)
  ---------------------------------------------------
  alpha Z        PSCENC =         0.09745814
  Ewald energy   TEWEN  =       520.31908462
  -1/2 Hartree   DENC   =      -813.86011194
  -exchange  EXHF       =         0.00000000
  -V(xc)+E(xc)   XCENC  =        44.15455016
  PAW double counting   =       888.80453135     -890.31197190
  entropy T*S    EENTRO =         0.00000000
  eigenvalues    EBANDS =      -158.82420107
  atomic energy  EATOM  =       369.12624373
  ---------------------------------------------------
  free energy    TOTEN  =       -40.49441693 eV

  energy without entropy =      -40.49441693  energy(sigma->0) =      -40.49441693


--------------------------------------------------------------------------------------------------------




----------------------------------------- Iteration    1(  33)  ---------------------------------------


    POTLOK:  cpu time    0.20: real time    0.20
    SETDIJ:  cpu time    0.00: real time    0.00
    EDDIAG:  cpu time    0.04: real time    0.04
  RMM-DIIS:  cpu time    0.11: real time    0.11
    ORTHCH:  cpu time    0.00: real time    0.00
       DOS:  cpu time    0.00: real time    0.00
    CHARGE:  cpu time    0.03: real time    0.03
    MIXING:  cpu time    0.04: real time    0.04
    --------------------------------------------
      LOOP:  cpu time    0.41: real time    0.43

 eigenvalue-minimisations  :    17
 total energy-change (2. order) : 0.5942077E-03  (-0.3820708E-07)
 number of electron      13.9999976 magnetization 
 augmentation part        0.3252129 magnetization 

 Broyden mixing:
  rms(total) = 0.25280E-02    rms(broyden)= 0.25218E-02
  rms(prec ) = 0.27468E-02
  weight for this iteration     100.00

 eigenvalues of (default mixing * dielectric matrix)
  average eigenvalue GAMMA=   2.5339
 10.7281  9.3380  6.7406  5.0513  3.6946  3.0922  2.4213  2.4213  0.2167  1.9010
  1.5909  1.5909  1.3816  1.0260  1.0260  1.0621  1.0003  1.0003  0.5712  0.7950
  0.7950  0.3169  0.5177

 Free energy of the ion-electron system (eV)
  ---------------------------------------------------
  alpha Z        PSCENC =         0.09745814
  Ewald energy   TEWEN  =       520.31908462
  -1/2 Hartree   DENC   =      -813.86027254
  -exchange  EXHF       =         0.00000000
  -V(xc)+E(xc)   XCENC  =        44.15455654
  PAW double counting   =       888.77713921     -890.28458097
  entropy T*S    EENTRO =         0.00070617
  eigenvalues    EBANDS =      -158.82415762
  atomic energy  EATOM  =       369.12624373
  ---------------------------------------------------
  free energy    TOTEN  =       -40.49382272 eV

  energy without entropy =      -40.49452888  energy(sigma->0) =      -40.49405811


--------------------------------------------------------------------------------------------------------




----------------------------------------- Iteration    1(  34)  ---------------------------------------


    POTLOK:  cpu time    0.19: real time    0.19
    SETDIJ:  cpu time    0.00: real time    0.00
    EDDIAG:  cpu time    0.04: real time    0.04
  RMM-DIIS:  cpu time    0.11: real time    0.11
    ORTHCH:  cpu time    0.00: real time    0.00
       DOS:  cpu time    0.00: real time    0.00
    CHARGE:  cpu time    0.03: real time    0.03
    MIXING:  cpu time    0.04: real time    0.04
    --------------------------------------------
      LOOP:  cpu time    0.41: real time    0.44

 eigenvalue-minimisations  :    17
 total energy-change (2. order) : 0.8016466E-05  (-0.1009837E-06)
 number of electron      13.9999976 magnetization 
 augmentation part        0.3252124 magnetization 

 Broyden mixing:
  rms(total) = 0.32848E-02    rms(broyden)= 0.32833E-02
  rms(prec ) = 0.35773E-02
  weight for this iteration     100.00

 eigenvalues of (default mixing * dielectric matrix)
  average eigenvalue GAMMA=   2.4346
 10.7041  9.3366  6.7494  5.0363  3.7134  3.0941  2.4241  2.4241  1.8951  1.5843
  1.5843  0.2167  1.3903  1.0268  1.0268  1.0611  0.9981  0.9981  0.5712  0.7927
  0.7927  0.1021  0.4535  0.4535

 Free energy of the ion-electron system (eV)
  ---------------------------------------------------
  alpha Z        PSCENC =         0.09745814
  Ewald energy   TEWEN  =       520.31908462
  -1/2 Hartree   DENC   =      -813.86328427
  -exchange  EXHF       =         0.00000000
  -V(xc)+E(xc)   XCENC  =        44.15468078
  PAW double counting   =       888.79519390     -890.30265520
  entropy T*S    EENTRO =         0.00074200
  eigenvalues    EBANDS =      -158.82127841
  atomic energy  EATOM  =       369.12624373
  ---------------------------------------------------
  free energy    TOTEN  =       -40.49381470 eV

  energy without entropy =      -40.49455670  energy(sigma->0) =      -40.49406204


--------------------------------------------------------------------------------------------------------




----------------------------------------- Iteration    1(  35)  ---------------------------------------


    POTLOK:  cpu time    0.19: real time    0.19
    SETDIJ:  cpu time    0.00: real time    0.00
    EDDIAG:  cpu time    0.04: real time    0.04
  RMM-DIIS:  cpu time    0.11: real time    0.11
    ORTHCH:  cpu time    0.00: real time    0.00
       DOS:  cpu time    0.00: real time    0.00
    CHARGE:  cpu time    0.02: real time    0.02
    MIXING:  cpu time    0.05: real time    0.05
    --------------------------------------------
[...]


    POTLOK:  cpu time    0.19: real time    0.19
    SETDIJ:  cpu time    0.00: real time    0.00
    EDDIAG:  cpu time    0.04: real time    0.04
  RMM-DIIS:  cpu time    0.11: real time    0.11
    ORTHCH:  cpu time    0.00: real time    0.00
       DOS:  cpu time    0.00: real time    0.00
    CHARGE:  cpu time    0.03: real time    0.03
    MIXING:  cpu time    0.01: real time    0.01
    --------------------------------------------
      LOOP:  cpu time    0.38: real time    0.40

 eigenvalue-minimisations  :    17
 total energy-change (2. order) :-0.1295444E-04  (-0.1893648E-06)
 number of electron      13.9999979 magnetization 
 augmentation part        0.3252089 magnetization 

 eigenvalues of (default mixing * dielectric matrix)
  average eigenvalue GAMMA=   1.2867
  2.4527  2.5377  0.9356  0.9356  1.7089  1.7089  1.0473  0.8993  0.8993  0.3487
  0.6797

  free energy =  -0.404945646477E+02  energy without entropy=  -0.404945646477E+02


--------------------------------------------------------------------------------------------------------




----------------------------------------- Iteration   11(  13)  ---------------------------------------


    POTLOK:  cpu time    0.19: real time    0.20
    SETDIJ:  cpu time    0.00: real time    0.00
    EDDIAG:  cpu time    0.04: real time    0.04
  RMM-DIIS:  cpu time    0.14: real time    0.14
    ORTHCH:  cpu time    0.00: real time    0.00
       DOS:  cpu time    0.00: real time    0.00
    CHARGE:  cpu time    0.03: real time    0.03
    MIXING:  cpu time    0.02: real time    0.02
    --------------------------------------------
      LOOP:  cpu time    0.41: real time    0.44

 eigenvalue-minimisations  :    22
 total energy-change (2. order) :-0.1710690E-04  (-0.3811286E-06)
 number of electron      13.9999979 magnetization 
 augmentation part        0.3252089 magnetization 

 eigenvalues of (default mixing * dielectric matrix)
  average eigenvalue GAMMA=   1.2094
  2.5550  2.5780  1.7330  1.7330  0.9372  0.9372  1.0434  0.9016  0.9016  0.3487
  0.6288  0.2153

  free energy =  -0.404945817546E+02  energy without entropy=  -0.404945817546E+02


--------------------------------------------------------------------------------------------------------




----------------------------------------- Iteration   11(  14)  ---------------------------------------


    POTLOK:  cpu time    0.19: real time    0.19
    SETDIJ:  cpu time    0.00: real time    0.00
    EDDIAG:  cpu time    0.04: real time    0.04
  RMM-DIIS:  cpu time    0.11: real time    0.11
    ORTHCH:  cpu time    0.00: real time    0.00
       DOS:  cpu time    0.00: real time    0.00
    CHARGE:  cpu time    0.02: real time    0.03
    MIXING:  cpu time    0.02: real time    0.02
    --------------------------------------------
      LOOP:  cpu time    0.39: real time    0.41

 eigenvalue-minimisations  :    17
 total energy-change (2. order) : 0.4908405E-05  (-0.1994079E-07)
 number of electron      13.9999979 magnetization 
 augmentation part        0.3252089 magnetization 

 eigenvalues of (default mixing * dielectric matrix)
  average eigenvalue GAMMA=   1.1681
  2.4629  2.6832  0.9356  0.9356  1.7368  1.7368  1.0454  0.9666  0.9666  0.3487
  0.5744  0.4393  0.3533

  free energy =  -0.404945768461E+02  energy without entropy=  -0.404945768461E+02


--------------------------------------------------------------------------------------------------------




----------------------------------------- Iteration   11(  15)  ---------------------------------------


    POTLOK:  cpu time    0.19: real time    0.19
    SETDIJ:  cpu time    0.00: real time    0.00
    EDDIAG:  cpu time    0.03: real time    0.04
  RMM-DIIS:  cpu time    0.11: real time    0.11
    ORTHCH:  cpu time    0.00: real time    0.00
       DOS:  cpu time    0.00: real time    0.00
    CHARGE:  cpu time    0.02: real time    0.03
    MIXING:  cpu time    0.02: real time    0.02
    --------------------------------------------
      LOOP:  cpu time    0.39: real time    0.41

 eigenvalue-minimisations  :    17
 total energy-change (2. order) :-0.1092541E-04  (-0.9224922E-07)
 number of electron      13.9999979 magnetization 
 augmentation part        0.3252089 magnetization 

 eigenvalues of (default mixing * dielectric matrix)
  average eigenvalue GAMMA=   1.1219
  2.5311  2.7231  1.7185  1.7185  0.9360  0.9360  1.0486  0.9832  0.9832  0.3487
  0.5471  0.5471  0.3430  0.3430

  free energy =  -0.404945877716E+02  energy without entropy=  -0.404945877716E+02


--------------------------------------------------------------------------------------------------------




----------------------------------------- Iteration   11(  16)  ---------------------------------------


    POTLOK:  cpu time    0.19: real time    0.19
    SETDIJ:  cpu time    0.00: real time    0.00
    EDDIAG:  cpu time    0.03: real time    0.04
  RMM-DIIS:  cpu time    0.11: real time    0.11
    ORTHCH:  cpu time    0.00: real time    0.00
       DOS:  cpu time    0.00: real time    0.00
    CHARGE:  cpu time    0.02: real time    0.03
    MIXING:  cpu time    0.02: real time    0.02
    --------------------------------------------
      LOOP:  cpu time    0.39: real time    0.41

 eigenvalue-minimisations  :    17
 total energy-change (2. order) : 0.3629945E-05  (-0.1453901E-07)
 number of electron      13.9999979 magnetization 
 augmentation part        0.3252089 magnetization 

 eigenvalues of (default mixing * dielectric matrix)
  average eigenvalue GAMMA=   1.1865
  2.2667  2.7553  1.1826  1.6767  1.6767  0.9367  0.9367  0.9159  0.9159  1.0715
  0.9814  0.9814  0.3487  0.5759  0.5759

  free energy =  -0.404945841416E+02  energy without entropy=  -0.404945841416E+02


--------------------------------------------------------------------------------------------------------




----------------------------------------- Iteration   11(  17)  ---------------------------------------


    POTLOK:  cpu time    0.19: real time    0.19
    SETDIJ:  cpu time    0.00: real time    0.00
    EDDIAG:  cpu time    0.04: real time    0.04
  RMM-DIIS:  cpu time    0.10: real time    0.10
    ORTHCH:  cpu time    0.00: real time    0.00
       DOS:  cpu time    0.00: real time    0.00
    CHARGE:  cpu time    0.03: real time    0.03
    MIXING:  cpu time    0.02: real time    0.02
    --------------------------------------------
      LOOP:  cpu time    0.38: real time    0.40

 eigenvalue-minimisations  :    13
 total energy-change (2. order) : 0.1952257E-05  (-0.3294154E-08)
 number of electron      13.9999979 magnetization 
 augmentation part        0.3252086 magnetization 

 eigenvalues of (default mixing * dielectric matrix)
  average eigenvalue GAMMA=   1.1344
  2.2004  2.7693  1.3153  1.6828  1.6828  0.9355  0.9355  0.9845  0.9845  1.0645
  0.9792  0.9792  0.3487  0.5768  0.5768  0.1352

  free energy =  -0.404945821894E+02  energy without entropy=  -0.404945821894E+02


--------------------------------------------------------------------------------------------------------




----------------------------------------- Iteration   11(  18)  ---------------------------------------


    POTLOK:  cpu time    0.19: real time    0.20
    SETDIJ:  cpu time    0.00: real time    0.00
    EDDIAG:  cpu time    0.04: real time    0.04
  RMM-DIIS:  cpu time    0.09: real time    0.09
    ORTHCH:  cpu time    0.00: real time    0.00
       DOS:  cpu time    0.00: real time    0.00
    --------------------------------------------
      LOOP:  cpu time    0.33: real time    0.35

 eigenvalue-minimisations  :    11
 total energy-change (2. order) : 0.3346655E-06  (-0.1133785E-08)
 number of electron      13.9999979 magnetization 
 augmentation part        0.3252086 magnetization 

  free energy =  -0.404945818547E+02  energy without entropy=  -0.404945818547E+02


--------------------------------------------------------------------------------------------------------




 average (electrostatic) potential at core
  the test charge radii are     0.6991  0.5201
  (the norm of the test charge is              1.0000)
       1 -58.1757       2 -58.1760       3 -41.4764       4 -41.4195       5 -41.4207
       6 -41.4333       7 -41.4342       8 -41.4772
 
 
 
 E-fermi :  -8.0138     XC(G=0):  -0.1548     alpha+bet : -0.0458


 k-point   1 :       0.0000    0.0000    0.0000
  band No.  band energies     occupation 
      1     -18.4910      2.00000
      2     -14.9737      2.00000
      3     -10.4658      2.00000
      4     -10.4475      2.00000
      5      -8.8706      2.00000
      6      -8.0907      2.00000
      7      -8.0701      2.00000
      8      -0.4423      0.00000
      9       0.0778      0.00000
     10       0.0864      0.00000
     11       0.2263      0.00000
     12       0.2323      0.00000


--------------------------------------------------------------------------------------------------------


 soft charge-density along one line, spin component           1
         0         1         2         3         4         5         6         7         8         9
 total charge-density along one line
 
 pseudopotential strength for first ion, spin component:           1
 10.214  13.583   0.000  -0.000   0.000  -0.000   0.000  -0.000
 13.583  18.062   0.000  -0.000   0.000  -0.000   0.000  -0.000
  0.000   0.000  -4.345   0.000  -0.000   8.504  -0.000   0.000
 -0.000  -0.000   0.000  -4.346  -0.000  -0.000   8.504   0.000
  0.000   0.000  -0.000  -0.000  -4.346   0.000   0.000   8.504
 -0.000  -0.000   8.504  -0.000   0.000 -18.778   0.000  -0.000
  0.000   0.000  -0.000   8.504   0.000   0.000 -18.779  -0.000
 -0.000  -0.000   0.000   0.000   8.504  -0.000  -0.000 -18.781
 total augmentation occupancy for first ion, spin component:           1
  7.551  -3.240  -0.002  -0.002  -0.029   0.000   0.000   0.002
 -3.240   1.405   0.001   0.000   0.003  -0.000  -0.000  -0.005
 -0.002   0.001   1.628   0.000  -0.001   0.135   0.000   0.000
 -0.002   0.000   0.000   1.627  -0.003   0.000   0.136   0.000
 -0.029   0.003  -0.001  -0.003   1.586   0.000   0.000   0.140
  0.000  -0.000   0.135   0.000   0.000   0.011   0.000   0.000
  0.000  -0.000   0.000   0.136   0.000   0.000   0.011   0.000
  0.002  -0.005   0.000   0.000   0.140   0.000   0.000   0.013


------------------------ aborting loop because EDIFF is reached ----------------------------------------


    CHARGE:  cpu time    0.02: real time    0.03
    FORLOC:  cpu time    0.02: real time    0.02
    FORNL :  cpu time    0.05: real time    0.06
    STRESS:  cpu time    0.18: real time    0.18
    FORCOR:  cpu time    0.20: real time    0.20
    FORHAR:  cpu time    0.06: real time    0.06
    MIXING:  cpu time    0.02: real time    0.02
 _________________________________
                                  
|         DFTD3 V3.0 Rev 1        |
| S.Grimme, University Bonn       |
|        November  2012           |
 _________________________________

Please cite DFT-D3 as:
S. Grimme, J. Antony, S. Ehrlich and H. Krieg,
J. Chem. Phys. 132 (2010), 154104
If used with BJ-damping cite also
S. Grimme, S. Ehrlich and L. Goerigk,
J. Comput. Chem. 32 (2011), 1456-1465
For DFT-D2 the reference is
S. Grimme, J. Comput. Chem., 27 (2006), 1787

           DFT-D V3
 DF pbe       
 parameters
 s6       :    1.0000
 s8       :    0.7220
 rs6      :    1.2170
 rs18     :    1.0000
 alpha6   :   14.0000
 alpha8   :   16.0000
 k1-k3    :   16.0000    1.3333   -4.0000
 Cutoff    /Ang:   50.2022
 CN-Cutoff /Ang:   21.1671
 Edisp /eV,au:    -0.0264 -0.00096984

 E6    /eV :    -0.0079
 E8    /eV :    -0.0256
 % E8        : 96.97

 POSITION                                vdW-FORCE (eV/Ang)               C6          C8     CN


 ---------------------------------------------------------------------------------------------

   11.64246   10.89499   -4.75596      -0.00861   -0.00028   -0.00058     18.3        530.6  4.0
   13.16587   10.94494   -4.65246       0.00861    0.00028    0.00058     18.3        530.6  4.0
   11.30286   11.08131   -5.78594      -0.00131    0.00051   -0.00311      3.1         37.4  1.0
   11.24997    9.91238   -4.45308      -0.00146   -0.00293    0.00093      3.1         37.4  1.0
   13.55954   11.92077   -4.97503       0.00147    0.00294   -0.00090      3.1         37.4  1.0
   13.63790   10.17608   -5.28275       0.00171   -0.00227   -0.00190      3.1         37.4  1.0
   11.16980   11.65098   -4.11084      -0.00170    0.00228    0.00188      3.1         37.4  1.0
   13.50557   10.77882   -3.61910       0.00130   -0.00053    0.00310      3.1         37.4  1.0

  FORCE on cell =-STRESS in cart. coord.  units (eV):
  Direction    XX          YY          ZZ          XY          YZ          ZX
  --------------------------------------------------------------------------------------
  DFT-D       0.02355     0.00939     0.00946     0.00046     0.00004     0.00097
    FORVDW:  cpu time    0.01: real time    0.02

  FORCE on cell =-STRESS in cart. coord.  units (eV):
  Direction    XX          YY          ZZ          XY          YZ          ZX
  --------------------------------------------------------------------------------------
  Alpha Z     0.09746     0.09746     0.09746
  Ewald     284.77759   117.38038   118.16195     5.33116     1.08612    11.10433
  Hartree   356.38732   228.44969   229.02952     3.99888     0.95511     8.47291
  E(xc)     -48.39300   -48.46680   -48.46737     0.00275     0.00059     0.00461
  Local    -755.40779  -454.18801  -455.59894    -9.51436    -2.04078   -19.99256
  n-local   -24.88776   -26.16105   -26.14506     0.04005     0.00181     0.08960
  augment     0.04403    -0.01130    -0.01309     0.00242     0.00078     0.00369
  Kinetic   186.73321   182.35088   182.22404     0.14957     0.00210     0.28097
  Fock        0.00000     0.00000     0.00000     0.00000     0.00000     0.00000
  -------------------------------------------------------------------------------------
  Total      -0.62539    -0.53936    -0.70205     0.01093     0.00577    -0.03548
  in kB      -0.12525    -0.10802    -0.14060     0.00219     0.00115    -0.00711
  external pressure =       -0.12 kB  Pullay stress =        0.00 kB


 VOLUME and BASIS-vectors are now :
 -----------------------------------------------------------------------------
  energy-cutoff  :      400.00
  volume of cell :     8000.00
      direct lattice vectors                 reciprocal lattice vectors
    16.329931619 -8.164965809 -8.164965809     0.040824829 -0.020412415 -0.020412415
     0.000000000 14.142135624-14.142135624     0.000000000  0.035355339 -0.035355339
    11.547005384 11.547005384 11.547005384     0.028867513  0.028867513  0.028867513

  length of vectors
    20.000000000 20.000000000 20.000000000     0.050000000  0.050000000  0.050000000


 FORCES acting on ions
    electron-ion (+dipol)            ewald-force                    non-local-force                 convergence-correction
 -----------------------------------------------------------------------------------------------
   0.779E+02 0.256E+01 0.522E+01   -.779E+02 -.254E+01 -.526E+01   0.284E-01 0.573E-02 -.217E-01   -.302E-02 -.275E-01 0.590E-01
   -.779E+02 -.253E+01 -.529E+01   0.779E+02 0.251E+01 0.534E+01   -.284E-01 -.285E-02 0.197E-01   0.351E-02 0.218E-01 -.612E-01
   0.277E+02 -.961E+01 0.555E+02   -.294E+02 0.105E+02 -.606E+02   0.172E+01 -.921E+00 0.510E+01   -.213E-02 -.606E-03 0.406E-02
   0.305E+02 0.526E+02 -.155E+02   -.325E+02 -.575E+02 0.170E+02   0.198E+01 0.485E+01 -.149E+01   0.158E-02 -.336E-02 -.432E-03
   -.306E+02 -.523E+02 0.165E+02   0.326E+02 0.571E+02 -.181E+02   -.199E+01 -.482E+01 0.159E+01   -.128E-02 0.306E-02 0.388E-03
   -.347E+02 0.406E+02 0.329E+02   0.371E+02 -.444E+02 -.360E+02   -.237E+01 0.380E+01 0.311E+01   -.750E-03 -.245E-02 0.487E-03
   0.348E+02 -.399E+02 -.337E+02   -.372E+02 0.437E+02 0.369E+02   0.238E+01 -.373E+01 -.319E+01   0.428E-03 0.217E-02 -.611E-03
   -.277E+02 0.854E+01 -.557E+02   0.294E+02 -.937E+01 0.608E+02   -.173E+01 0.819E+00 -.512E+01   0.223E-02 0.380E-03 -.420E-02
 -----------------------------------------------------------------------------------------------
   -.145E-02 0.713E-02 0.322E-02   0.107E-13 -.178E-14 0.000E+00   -.340E-02 -.166E-02 0.425E-02   0.569E-03 -.645E-02 -.257E-02
 
 
 POSITION                                       TOTAL-FORCE (eV/Angst)
 -----------------------------------------------------------------------------------
     11.64246     10.89499     -4.75596         0.001343     -0.001160     -0.008109
     13.16587     10.94494     -4.65246        -0.001304      0.001034      0.007691
     11.30286     11.08131     -5.78594         0.002085     -0.001351      0.004256
     11.24997      9.91238     -4.45308        -0.001595     -0.002110      0.003969
     13.55954     11.92077     -4.97503         0.000415      0.004891      0.003941
     13.63790     10.17608     -5.28275         0.003242     -0.001262     -0.000684
     11.16980     11.65098     -4.11084        -0.001002      0.006578     -0.005253
     13.50557     10.77882     -3.61910        -0.003185     -0.006620     -0.005810
 -----------------------------------------------------------------------------------
    total drift:                               -0.004277     -0.000972      0.004891


--------------------------------------------------------------------------------------------------------



  FREE ENERGIE OF THE ION-ELECTRON SYSTEM (eV)
  ---------------------------------------------------
  free  energy   TOTEN  =       -40.52097293 eV

  energy  without entropy=      -40.52097293  energy(sigma->0) =      -40.52097293
 
 d Force = 0.7592374E-05[ 0.208E-05, 0.131E-04]  d Energy =-0.2160511E-07 0.761E-05
 d Force =-0.4400129E-02[-0.440E-02,-0.440E-02]  d Ewald  =-0.4400130E-02 0.124E-08


--------------------------------------------------------------------------------------------------------


    POTLOK:  cpu time    0.20: real time    0.20


--------------------------------------------------------------------------------------------------------


 stress matrix after NEB project (eV)
     -0.62539      0.01093     -0.03548
      0.01093     -0.53936      0.00577
     -0.03548      0.00577     -0.70205
  FORCES: max atom, RMS     0.009366    0.006979
  FORCE total and by dimension    0.019739    0.008109
  Stress total and by dimension    1.085227    0.702047
 Quasi-Newton relaxation of ions (Broydens 2nd method)
  g(Force)  = 0.188E-04   g(Stress)= 0.000E+00

 retain information from N=  2 steps
 eigenvalues of (default step * inverse Hessian matrix)
  average eigenvalue of G=   7.2722
 eigenvalue spectrum of G is  0.2536 14.2909


--------------------------------------------------------------------------------------------------------


  
 reached required accuracy - stopping structural energy minimisation
     LOOP+:  cpu time   10.91: real time   11.36
    4ORBIT:  cpu time    0.00: real time    0.00

 total amount of memory used by VASP on root node    58098. kBytes
========================================================================

   base      :      30000. kBytes
   nonlr-proj:        269. kBytes
   fftplans  :      10155. kBytes
   grid      :      16274. kBytes
   one-center:          3. kBytes
   wavefun   :       1397. kBytes
 
  
  
 General timing and accounting informations for this job:
 ========================================================
  
                  Total CPU time used (sec):       95.410
                            User time (sec):       90.627
                          System time (sec):        4.783
                         Elapsed time (sec):      101.642
  
                   Maximum memory used (kb):       98608.
                   Average memory used (kb):           0.
  
                          Minor page faults:      1240800
                          Major page faults:           17
                 Voluntary context switches:         2702
