<?xml version="1.0" encoding="ISO-8859-1"?>
<modeling>
 <generator>
  <i name="program" type="string">vasp </i>
  <i name="version" type="string">5.3.2  </i>
  <i name="subversion" type="string">13Sep12 (build Oct  1 2014 13:46:58) complex                          parallel </i>
  <i name="platform" type="string">LinuxIFC </i>
  <i name="date" type="string">2015 11 22 </i>
  <i name="time" type="string">18:50:12 </i>
 </generator>
 <incar>
  <i type="int" name="ISTART">     0</i>
  <i type="string" name="PREC">med</i>
  <i type="string" name="ALGO"> Fast</i>
  <i type="int" name="ISPIN">     1</i>
  <i type="int" name="NELM">   400</i>
  <i type="int" name="NELMDL">   -10</i>
  <i type="int" name="IBRION">     1</i>
  <i type="int" name="NFREE">     2</i>
  <i name="EDIFF">      0.00000100</i>
  <i name="EDIFFG">     -0.01000000</i>
  <i type="int" name="NSW">   200</i>
  <i type="int" name="ISIF">     2</i>
  <i type="int" name="ISYM">     0</i>
  <i name="ENCUT">    400.00000000</i>
  <i name="POTIM">      0.50000000</i>
  <i type="string" name="LREAL"> auto</i>
  <v name="ROPT">     -0.00020000     -0.00020000</v>
  <i type="logical" name="LPLANE"> T  </i>
  <i type="int" name="ISMEAR">     1</i>
  <i name="SIGMA">      0.01000000</i>
  <i type="int" name="NWRITE">     1</i>
  <i type="logical" name="LWAVE"> F  </i>
  <i type="logical" name="LCHARG"> F  </i>
  <i type="logical" name="LVTOT"> F  </i>
  <i type="int" name="NELM">   400</i>
  <i type="int" name="VOSKOWN">     1</i>
 </incar>
 <kpoints>
  <generation param="Monkhorst-Pack">
   <v type="int" name="divisions">       1        1        1 </v>
   <v name="usershift">      0.00000000       0.00000000       0.00000000 </v>
   <v name="genvec1">      1.00000000       0.00000000       0.00000000 </v>
   <v name="genvec2">      0.00000000       1.00000000       0.00000000 </v>
   <v name="genvec3">      0.00000000       0.00000000       1.00000000 </v>
   <v name="shift">      0.00000000       0.00000000       0.00000000 </v>
  </generation>
  <varray name="kpointlist" >
   <v>       0.00000000       0.00000000       0.00000000 </v>
  </varray>
  <varray name="weights" >
   <v>       1.00000000 </v>
  </varray>
 </kpoints>
 <parameters>
  <separator name="general" >
   <i type="string" name="SYSTEM">unknown system</i>
   <i type="logical" name="LCOMPAT"> F  </i>
  </separator>
  <separator name="electronic" >
   <i type="string" name="PREC">med</i>
   <i name="ENMAX">    400.00000000</i>
   <i name="ENAUG">    644.87300000</i>
   <i name="EDIFF">      0.00000100</i>
   <i type="int" name="IALGO">    68</i>
   <i type="int" name="IWAVPR">    11</i>
   <i type="int" name="NBANDS">    12</i>
   <i name="NELECT">     14.00000000</i>
   <i type="int" name="TURBO">     0</i>
   <i type="int" name="IRESTART">     0</i>
   <i type="int" name="NREBOOT">     0</i>
   <i type="int" name="NMIN">     0</i>
   <i name="EREF">      0.00000000</i>
   <separator name="electronic smearing" >
    <i type="int" name="ISMEAR">     1</i>
    <i name="SIGMA">      0.01000000</i>
    <i name="KSPACING">      0.50000000</i>
    <i type="logical" name="KGAMMA"> T  </i>
   </separator>
   <separator name="electronic projectors" >
    <i type="logical" name="LREAL"> T  </i>
    <v name="ROPT">     -0.00020000     -0.00020000</v>
    <i type="int" name="LMAXPAW">  -100</i>
    <i type="int" name="LMAXMIX">     2</i>
    <i type="logical" name="NLSPLINE"> F  </i>
   </separator>
   <separator name="electronic startup" >
    <i type="int" name="ISTART">     0</i>
    <i type="int" name="ICHARG">     2</i>
    <i type="int" name="INIWAV">     1</i>
   </separator>
   <separator name="electronic spin" >
    <i type="int" name="ISPIN">     1</i>
    <i type="logical" name="LNONCOLLINEAR"> F  </i>
    <v name="MAGMOM">      1.00000000      1.00000000      1.00000000      1.00000000      1.00000000      1.00000000      1.00000000      1.00000000</v>
    <i name="NUPDOWN">     -1.00000000</i>
    <i type="logical" name="LSORBIT"> F  </i>
    <v name="SAXIS">      0.00000000      0.00000000      1.00000000</v>
    <i type="logical" name="LSPIRAL"> F  </i>
    <v name="QSPIRAL">      0.00000000      0.00000000      0.00000000</v>
    <i type="logical" name="LZEROZ"> F  </i>
   </separator>
   <separator name="electronic exchange-correlation" >
    <i type="logical" name="LASPH"> F  </i>
    <i type="logical" name="LMETAGGA"> F  </i>
   </separator>
   <separator name="electronic convergence" >
    <i type="int" name="NELM">   400</i>
    <i type="int" name="NELMDL">   -10</i>
    <i type="int" name="NELMIN">     2</i>
    <i name="ENINI">    400.00000000</i>
    <separator name="electronic convergence detail" >
     <i type="logical" name="LDIAG"> T  </i>
     <i type="logical" name="LSUBROT"> T  </i>
     <i name="WEIMIN">      0.00100000</i>
     <i name="EBREAK">      0.00000002</i>
     <i name="DEPER">      0.30000000</i>
     <i type="int" name="NRMM">     4</i>
     <i name="TIME">      0.40000000</i>
    </separator>
   </separator>
   <separator name="electronic mixer" >
    <i name="AMIX">      0.40000000</i>
    <i name="BMIX">      1.00000000</i>
    <i name="AMIN">      0.10000000</i>
    <i name="AMIX_MAG">      1.60000000</i>
    <i name="BMIX_MAG">      1.00000000</i>
    <separator name="electronic mixer details" >
     <i type="int" name="IMIX">     4</i>
     <i type="int" name="MAXMIX">   -45</i>
     <i name="WC">    100.00000000</i>
     <i type="int" name="INIMIX">     1</i>
     <i type="int" name="MIXPRE">     1</i>
     <i type="int" name="MREMOVE">     5</i>
    </separator>
   </separator>
   <separator name="electronic dipolcorrection" >
    <i type="logical" name="LDIPOL"> F  </i>
    <i type="logical" name="LMONO"> F  </i>
    <i type="int" name="IDIPOL">     0</i>
    <i name="EPSILON">      1.00000000</i>
    <v name="DIPOL">   -100.00000000   -100.00000000   -100.00000000</v>
    <i name="EFIELD">      0.00000000</i>
   </separator>
  </separator>
  <separator name="grids" >
   <i type="int" name="NGX">    98</i>
   <i type="int" name="NGY">    98</i>
   <i type="int" name="NGZ">    98</i>
   <i type="int" name="NGXF">   168</i>
   <i type="int" name="NGYF">   168</i>
   <i type="int" name="NGZF">   168</i>
   <i type="logical" name="ADDGRID"> F  </i>
  </separator>
  <separator name="ionic" >
   <i type="int" name="NSW">   200</i>
   <i type="int" name="IBRION">     1</i>
   <i type="int" name="ISIF">     2</i>
   <i name="PSTRESS">      0.00000000</i>
   <i name="EDIFFG">     -0.01000000</i>
   <i type="int" name="NFREE">     2</i>
   <i name="POTIM">      0.50000000</i>
   <i name="SMASS">     -3.00000000</i>
   <i name="SCALEE">      1.00000000</i>
  </separator>
  <separator name="ionic md" >
   <i name="TEBEG">      0.00010000</i>
   <i name="TEEND">      0.00010000</i>
   <i type="int" name="NBLOCK">     1</i>
   <i type="int" name="KBLOCK">   200</i>
   <i type="int" name="NPACO">   256</i>
   <i name="APACO">     16.00000000</i>
  </separator>
  <separator name="symmetry" >
   <i type="int" name="ISYM">     0</i>
   <i name="SYMPREC">      0.00001000</i>
  </separator>
  <separator name="dos" >
   <i type="logical" name="LORBIT"> F  </i>
   <v name="RWIGS">     -1.00000000     -1.00000000</v>
   <i type="int" name="NEDOS">   301</i>
   <i name="EMIN">     10.00000000</i>
   <i name="EMAX">    -10.00000000</i>
   <i name="EFERMI">      0.00000000</i>
  </separator>
  <separator name="writing" >
   <i type="int" name="NWRITE">     1</i>
   <i type="logical" name="LWAVE"> F  </i>
   <i type="logical" name="LCHARG"> F  </i>
   <i type="logical" name="LPARD"> F  </i>
   <i type="logical" name="LVTOT"> F  </i>
   <i type="logical" name="LVHAR"> F  </i>
   <i type="logical" name="LELF"> F  </i>
   <i type="logical" name="LOPTICS"> F  </i>
   <v name="STM">      0.00000000      0.00000000      0.00000000      0.00000000      0.00000000      0.00000000      0.00000000</v>
  </separator>
  <separator name="performance" >
   <i type="int" name="NPAR">     1</i>
   <i type="int" name="NSIM">     4</i>
   <i type="int" name="NBLK">    -1</i>
   <i type="logical" name="LPLANE"> T  </i>
   <i type="logical" name="LSCALAPACK"> F  </i>
   <i type="logical" name="LSCAAWARE"> F  </i>
   <i type="logical" name="LSCALU"> F  </i>
   <i type="logical" name="LASYNC"> F  </i>
   <i type="logical" name="LORBITALREAL"> F  </i>
  </separator>
  <separator name="miscellaneous" >
   <i type="int" name="IDIOT">     3</i>
   <i type="logical" name="LMUSIC"> F  </i>
   <v name="POMASS">     12.01100000      1.00000000</v>
   <v name="DARWINR">      0.00000000      0.00000000</v>
   <v name="DARWINV">      1.00000000      1.00000000</v>
   <i type="logical" name="LCORR"> T  </i>
  </separator>
  <i type="logical" name="GGA_COMPAT"> T  </i>
  <i type="logical" name="LBERRY"> F  </i>
  <i type="int" name="ICORELEVEL">     0</i>
  <i type="logical" name="LDAU"> F  </i>
  <i type="int" name="I_CONSTRAINED_M">     0</i>
  <separator name="electronic exchange-correlation" >
   <i type="string" name="GGA">--</i>
   <i type="int" name="VOSKOWN">     1</i>
   <i type="logical" name="LHFCALC"> F  </i>
   <i type="string" name="PRECFOCK"></i>
   <i type="logical" name="LSYMGRAD"> F  </i>
   <i type="logical" name="LHFONE"> F  </i>
   <i type="logical" name="LRHFCALC"> F  </i>
   <i type="logical" name="LTHOMAS"> F  </i>
   <i type="logical" name="LMODELHF"> F  </i>
   <i name="ENCUT4O">     -1.00000000</i>
   <i type="int" name="EXXOEP">     0</i>
   <i type="int" name="FOURORBIT">     0</i>
   <i name="AEXX">      0.00000000</i>
   <i name="HFALPHA">      0.00000000</i>
   <i name="MCALPHA">      0.00000000</i>
   <i name="ALDAX">      1.00000000</i>
   <i name="AGGAX">      1.00000000</i>
   <i name="ALDAC">      1.00000000</i>
   <i name="AGGAC">      1.00000000</i>
   <i type="int" name="NKREDX">     1</i>
   <i type="int" name="NKREDY">     1</i>
   <i type="int" name="NKREDZ">     1</i>
   <i type="logical" name="SHIFTRED"> F  </i>
   <i type="logical" name="ODDONLY"> F  </i>
   <i type="logical" name="EVENONLY"> F  </i>
   <i type="int" name="LMAXFOCK">     0</i>
   <i type="int" name="NMAXFOCKAE">     0</i>
   <i type="logical" name="LFOCKAEDFT"> F  </i>
   <i name="HFSCREEN">      0.00000000</i>
   <i name="HFSCREENC">      0.00000000</i>
   <i type="int" name="NBANDSGWLOW">     0</i>
  </separator>
  <separator name="vdW DFT" >
   <i type="logical" name="LUSE_VDW"> F  </i>
   <i name="Zab_VDW">     -0.84910000</i>
   <i name="PARAM1">      0.12340000</i>
   <i name="PARAM2">      1.00000000</i>
   <i name="PARAM3">      0.00000000</i>
  </separator>
  <separator name="model GW" >
   <i type="int" name="MODEL_GW">     0</i>
   <i name="MODEL_EPS0">    600.00000000</i>
   <i name="MODEL_ALPHA">      1.00000000</i>
  </separator>
  <separator name="linear response parameters" >
   <i type="logical" name="LEPSILON"> F  </i>
   <i type="logical" name="LRPA"> F  </i>
   <i type="logical" name="LNABLA"> F  </i>
   <i type="logical" name="LVEL"> F  </i>
   <i type="int" name="KINTER">     0</i>
   <i name="CSHIFT">      0.10000000</i>
   <i name="OMEGAMAX">     -1.00000000</i>
   <i name="DEG_THRESHOLD">      0.00200000</i>
  </separator>
  <separator name="orbital magnetization" >
   <i type="logical" name="NUCIND"> F  </i>
   <v name="MAGPOS">      0.00000000      0.00000000      0.00000000</v>
   <i type="logical" name="LNICSALL"> T  </i>
   <i type="logical" name="ORBITALMAG"> F  </i>
   <i type="logical" name="LMAGBLOCH"> F  </i>
   <i type="logical" name="LCHIMAG"> F  </i>
   <i type="logical" name="LGAUGE"> T  </i>
   <i type="int" name="MAGATOM">     0</i>
   <v name="MAGDIPOL">      0.00000000      0.00000000      0.00000000</v>
   <v name="AVECCONST">      0.00000000      0.00000000      0.00000000</v>
  </separator>
  <separator name="response functions" >
   <i type="logical" name="LADDER"> F  </i>
   <i type="logical" name="LHARTREE"> T  </i>
   <i type="int" name="IBSE">     0</i>
   <i type="logical" name="LTCTE"> F  </i>
   <i type="logical" name="LTETE"> F  </i>
   <i type="logical" name="LTRIPLET"> F  </i>
   <i type="logical" name="LFXCEPS"> F  </i>
   <i type="logical" name="L2ORDER"> F  </i>
   <i type="logical" name="LUSEW"> F  </i>
   <i name="ENCUTGW">     -2.00000000</i>
   <i name="ENCUTGWSOFT">     -2.00000000</i>
   <i name="ENCUTLF">     -1.00000000</i>
   <i type="int" name="LMAXMP2">    -1</i>
   <i name="SCISSOR">      0.00000000</i>
   <i type="int" name="NOMEGA">     0</i>
   <i type="int" name="NOMEGAR">     0</i>
   <i type="int" name="NBANDSGW">    -1</i>
   <i type="int" name="NBANDSO">    -1</i>
   <i type="int" name="NBANDSV">    -1</i>
   <i type="int" name="NELM">   400</i>
   <i type="int" name="DIM">     3</i>
   <i type="int" name="ANTIRES">     0</i>
   <i name="OMEGAMAX">    -30.00000000</i>
   <i name="OMEGATL">   -200.00000000</i>
   <i type="int" name="OMEGAGRID">     0</i>
   <i name="CSHIFT">     -0.10000000</i>
   <i type="logical" name="SELFENERGY"> F  </i>
   <i type="logical" name="LSPECTRAL"> F  </i>
   <i type="logical" name="ODDONLYGW"> F  </i>
   <i type="logical" name="EVENONLYGW"> F  </i>
   <i type="int" name="NKREDLFX">     1</i>
   <i type="int" name="NKREDLFY">     1</i>
   <i type="int" name="NKREDLFZ">     1</i>
   <i type="int" name="MAXMEM">  1800</i>
   <i type="int" name="TELESCOPE">     0</i>
  </separator>
 </parameters>
 <atominfo>
  <atoms>       8 </atoms>
  <types>       2 </types>
  <array name="atoms" >
   <dimension dim="1">ion</dimension>
   <field type="string">element</field>
   <field type="int">atomtype</field>
   <set>
    <rc><c>C </c><c>   1</c></rc>
    <rc><c>C </c><c>   1</c></rc>
    <rc><c>H </c><c>   2</c></rc>
    <rc><c>H </c><c>   2</c></rc>
    <rc><c>H </c><c>   2</c></rc>
    <rc><c>H </c><c>   2</c></rc>
    <rc><c>H </c><c>   2</c></rc>
    <rc><c>H </c><c>   2</c></rc>
   </set>
  </array>
  <array name="atomtypes" >
   <dimension dim="1">type</dimension>
   <field type="int">atomspertype</field>
   <field type="string">element</field>
   <field>mass</field>
   <field>valence</field>
   <field type="string">pseudopotential</field>
   <set>
    <rc><c>   2</c><c>C </c><c>     12.01100000</c><c>      4.00000000</c><c>  PAW_PBE C 08Apr2002                   </c></rc>
    <rc><c>   6</c><c>H </c><c>      1.00000000</c><c>      1.00000000</c><c>  PAW_PBE H 15Jun2001                   </c></rc>
   </set>
  </array>
 </atominfo>
 <structure name="initialpos" >
  <crystal>
   <varray name="basis" >
    <v>      16.32993162      -8.16496581      -8.16496581 </v>
    <v>       0.00000000      14.14213562     -14.14213562 </v>
    <v>      11.54700538      11.54700538      11.54700538 </v>
   </varray>
   <i name="volume">   8000.00000000 </i>
   <varray name="rec_basis" >
    <v>       0.04082483      -0.02041241      -0.02041241 </v>
    <v>       0.00000000       0.03535534      -0.03535534 </v>
    <v>       0.02886751       0.02886751       0.02886751 </v>
   </varray>
  </crystal>
  <varray name="positions" >
   <v>       0.34996834       0.55335306       0.51333331 </v>
   <v>       0.40906104       0.55143780       0.56169911 </v>
   <v>       0.35333718       0.59635762       0.47917263 </v>
   <v>       0.34789191       0.50794774       0.48229575 </v>
   <v>       0.41182808       0.59736384       0.59191009 </v>
   <v>       0.45685616       0.54649952       0.53491363 </v>
   <v>       0.30206979       0.55719024       0.54011757 </v>
   <v>       0.40518758       0.50910612       0.59663593 </v>
  </varray>
  <varray name="selective"  type="logical" >
   <v type="logical" >  T  T  T </v>
   <v type="logical" >  T  T  T </v>
   <v type="logical" >  T  T  T </v>
   <v type="logical" >  T  T  T </v>
   <v type="logical" >  T  T  T </v>
   <v type="logical" >  T  T  T </v>
   <v type="logical" >  T  T  T </v>
   <v type="logical" >  T  T  T </v>
  </varray>
  <nose>
   <v>      -3.00000000       0.00000000       0.00010000       0.00010000 </v>
  </nose>
 </structure>
 <calculation>
  <scstep>
   <time name="dav">    0.34    0.40</time>
   <time name="total">    0.54    0.61</time>
   <energy>
    <i name="alphaZ">      0.09745814 </i>
    <i name="ewald">    520.31908462 </i>
    <i name="hartreedc">   -739.75246171 </i>
    <i name="XCdc">     39.84694806 </i>
    <i name="pawpsdc">    229.84825738 </i>
    <i name="pawaedc">   -231.04033570 </i>
    <i name="eentropy">      0.00057979 </i>
    <i name="bandstr">   -127.03989614 </i>
    <i name="atom">    369.12624373 </i>
    <i name="e_fr_energy">     61.40587817 </i>
    <i name="e_wo_entrp">     61.40529838 </i>
    <i name="e_0_energy">     61.40568490 </i>
   </energy>
  </scstep>
  <scstep>
   <time name="dav">    3.04    3.53</time>
   <time name="total">    3.04    3.61</time>
   <energy>
    <i name="e_fr_energy">    -19.12878648 </i>
    <i name="e_wo_entrp">    -19.12936627 </i>
    <i name="e_0_energy">    -19.12897974 </i>
   </energy>
  </scstep>
  <scstep>
   <time name="dav">    0.24    0.24</time>
   <time name="total">    0.24    0.26</time>
   <energy>
    <i name="e_fr_energy">    -43.11564918 </i>
    <i name="e_wo_entrp">    -43.11622897 </i>
    <i name="e_0_energy">    -43.11584244 </i>
   </energy>
  </scstep>
  <scstep>
   <time name="dav">    0.24    0.24</time>
   <time name="total">    0.24    0.27</time>
   <energy>
    <i name="e_fr_energy">    -45.71669951 </i>
    <i name="e_wo_entrp">    -45.71727930 </i>
    <i name="e_0_energy">    -45.71689277 </i>
   </energy>
  </scstep>
  <scstep>
   <time name="dav">    0.24    0.24</time>
   <time name="total">    0.24    0.26</time>
   <energy>
    <i name="e_fr_energy">    -45.81782097 </i>
    <i name="e_wo_entrp">    -45.81842509 </i>
    <i name="e_0_energy">    -45.81802235 </i>
   </energy>
  </scstep>
  <scstep>
   <time name="dav">    0.24    0.24</time>
   <time name="total">    0.24    0.27</time>
   <energy>
    <i name="e_fr_energy">    -45.82153276 </i>
    <i name="e_wo_entrp">    -45.82214954 </i>
    <i name="e_0_energy">    -45.82173835 </i>
   </energy>
  </scstep>
  <scstep>
   <time name="dav">    0.34    0.34</time>
   <time name="total">    0.34    0.36</time>
   <energy>
    <i name="e_fr_energy">    -45.82169758 </i>
    <i name="e_wo_entrp">    -45.82231500 </i>
    <i name="e_0_energy">    -45.82190339 </i>
   </energy>
  </scstep>
  <scstep>
   <time name="dav">    0.27    0.27</time>
   <time name="total">    0.27    0.29</time>
   <energy>
    <i name="e_fr_energy">    -45.82169760 </i>
    <i name="e_wo_entrp">    -45.82231502 </i>
    <i name="e_0_energy">    -45.82190341 </i>
   </energy>
  </scstep>
  <scstep>
   <time name="dav">    0.24    0.24</time>
   <time name="total">    0.24    0.26</time>
   <energy>
    <i name="e_fr_energy">    -45.82169760 </i>
    <i name="e_wo_entrp">    -45.82231502 </i>
    <i name="e_0_energy">    -45.82190340 </i>
   </energy>
  </scstep>
  <scstep>
   <time name="dav">    0.15    0.15</time>
   <time name="total">    0.18    0.20</time>
   <energy>
    <i name="e_fr_energy">    -45.82169760 </i>
    <i name="e_wo_entrp">    -45.82231502 </i>
    <i name="e_0_energy">    -45.82190340 </i>
   </energy>
  </scstep>
  <scstep>
   <time name="diag">    0.04    0.04</time>
   <time name="diis">    0.15    0.15</time>
   <time name="orth">    0.00    0.00</time>
   <time name="total">    0.40    0.43</time>
   <energy>
    <i name="e_fr_energy">    -41.58113559 </i>
    <i name="e_wo_entrp">    -41.58180245 </i>
    <i name="e_0_energy">    -41.58135788 </i>
   </energy>
  </scstep>
  <scstep>
   <time name="diag">    0.03    0.04</time>
   <time name="diis">    0.14    0.14</time>
   <time name="orth">    0.00    0.00</time>
   <time name="total">    0.40    0.43</time>
   <energy>
    <i name="e_fr_energy">    -40.69801672 </i>
    <i name="e_wo_entrp">    -40.69801672 </i>
    <i name="e_0_energy">    -40.69801672 </i>
   </energy>
  </scstep>
  <scstep>
   <time name="diag">    0.04    0.04</time>
   <time name="diis">    0.14    0.15</time>
   <time name="orth">    0.00    0.00</time>
   <time name="total">    0.40    0.42</time>
   <energy>
    <i name="e_fr_energy">    -40.49552941 </i>
    <i name="e_wo_entrp">    -40.49552941 </i>
    <i name="e_0_energy">    -40.49552941 </i>
   </energy>
  </scstep>
  <scstep>
   <time name="diag">    0.04    0.04</time>
   <time name="diis">    0.15    0.15</time>
   <time name="orth">    0.00    0.00</time>
   <time name="total">    0.40    0.42</time>
   <energy>
    <i name="e_fr_energy">    -40.48332662 </i>
    <i name="e_wo_entrp">    -40.48397808 </i>
    <i name="e_0_energy">    -40.48354377 </i>
   </energy>
  </scstep>
  <scstep>
   <time name="diag">    0.03    0.04</time>
   <time name="diis">    0.15    0.15</time>
   <time name="orth">    0.00    0.00</time>
   <time name="total">    0.40    0.43</time>
   <energy>
    <i name="e_fr_energy">    -40.47800295 </i>
    <i name="e_wo_entrp">    -40.47917817 </i>
    <i name="e_0_energy">    -40.47839469 </i>
   </energy>
  </scstep>
  <scstep>
   <time name="diag">    0.04    0.04</time>
   <time name="diis">    0.15    0.15</time>
   <time name="orth">    0.00    0.00</time>
   <time name="total">    0.41    0.43</time>
   <energy>
    <i name="e_fr_energy">    -40.47781380 </i>
    <i name="e_wo_entrp">    -40.47908478 </i>
    <i name="e_0_energy">    -40.47823746 </i>
   </energy>
  </scstep>
  <scstep>
   <time name="diag">    0.03    0.04</time>
   <time name="diis">    0.15    0.15</time>
   <time name="orth">    0.00    0.00</time>
   <time name="total">    0.41    0.43</time>
   <energy>
    <i name="e_fr_energy">    -40.47567125 </i>
    <i name="e_wo_entrp">    -40.47567125 </i>
    <i name="e_0_energy">    -40.47567125 </i>
   </energy>
  </scstep>
  <scstep>
   <time name="diag">    0.04    0.04</time>
   <time name="diis">    0.15    0.15</time>
   <time name="orth">    0.00    0.00</time>
   <time name="total">    0.41    0.43</time>
   <energy>
    <i name="e_fr_energy">    -40.48203150 </i>
    <i name="e_wo_entrp">    -40.48326362 </i>
    <i name="e_0_energy">    -40.48244220 </i>
   </energy>
  </scstep>
  <scstep>
   <time name="diag">    0.04    0.04</time>
   <time name="diis">    0.15    0.15</time>
   <time name="orth">    0.00    0.00</time>
   <time name="total">    0.41    0.43</time>
   <energy>
    <i name="e_fr_energy">    -40.48342024 </i>
    <i name="e_wo_entrp">    -40.48412015 </i>
    <i name="e_0_energy">    -40.48365354 </i>
   </energy>
  </scstep>
  <scstep>
   <time name="diag">    0.04    0.04</time>
   <time name="diis">    0.15    0.15</time>
   <time name="orth">    0.00    0.00</time>
   <time name="total">    0.41    0.43</time>
   <energy>
    <i name="e_fr_energy">    -40.49089521 </i>
    <i name="e_wo_entrp">    -40.49147794 </i>
    <i name="e_0_energy">    -40.49108946 </i>
   </energy>
  </scstep>
  <scstep>
   <time name="diag">    0.04    0.04</time>
   <time name="diis">    0.15    0.15</time>
   <time name="orth">    0.00    0.00</time>
   <time name="total">    0.41    0.44</time>
   <energy>
    <i name="e_fr_energy">    -40.49163524 </i>
    <i name="e_wo_entrp">    -40.49221706 </i>
    <i name="e_0_energy">    -40.49182918 </i>
   </energy>
  </scstep>
  <scstep>
   <time name="diag">    0.03    0.04</time>
   <time name="diis">    0.14    0.14</time>
   <time name="orth">    0.00    0.00</time>
   <time name="total">    0.41    0.43</time>
   <energy>
    <i name="e_fr_energy">    -40.49319913 </i>
    <i name="e_wo_entrp">    -40.49377947 </i>
    <i name="e_0_energy">    -40.49339257 </i>
   </energy>
  </scstep>
  <scstep>
   <time name="diag">    0.04    0.04</time>
   <time name="diis">    0.15    0.15</time>
   <time name="orth">    0.00    0.00</time>
   <time name="total">    0.41    0.44</time>
   <energy>
    <i name="e_fr_energy">    -40.49348045 </i>
    <i name="e_wo_entrp">    -40.49406035 </i>
    <i name="e_0_energy">    -40.49367375 </i>
   </energy>
  </scstep>
  <scstep>
   <time name="diag">    0.03    0.04</time>
   <time name="diis">    0.15    0.15</time>
   <time name="orth">    0.00    0.00</time>
   <time name="total">    0.41    0.43</time>
   <energy>
    <i name="e_fr_energy">    -40.49375409 </i>
    <i name="e_wo_entrp">    -40.49433389 </i>
    <i name="e_0_energy">    -40.49394735 </i>
   </energy>
  </scstep>
  <scstep>
   <time name="diag">    0.04    0.04</time>
   <time name="diis">    0.15    0.15</time>
   <time name="orth">    0.00    0.00</time>
   <time name="total">    0.41    0.44</time>
   <energy>
    <i name="e_fr_energy">    -40.49388428 </i>
    <i name="e_wo_entrp">    -40.49446407 </i>
    <i name="e_0_energy">    -40.49407754 </i>
   </energy>
  </scstep>
  <scstep>
   <time name="diag">    0.04    0.04</time>
   <time name="diis">    0.14    0.15</time>
   <time name="orth">    0.00    0.00</time>
   <time name="total">    0.41    0.43</time>
   <energy>
    <i name="e_fr_energy">    -40.49400146 </i>
    <i name="e_wo_entrp">    -40.49458125 </i>
    <i name="e_0_energy">    -40.49419472 </i>
   </energy>
  </scstep>
  <scstep>
   <time name="diag">    0.03    0.04</time>
   <time name="diis">    0.15    0.15</time>
   <time name="orth">    0.00    0.00</time>
   <time name="total">    0.42    0.44</time>
   <energy>
    <i name="e_fr_energy">    -40.49388721 </i>
    <i name="e_wo_entrp">    -40.49446701 </i>
    <i name="e_0_energy">    -40.49408048 </i>
   </energy>
  </scstep>
  <scstep>
   <time name="diag">    0.03    0.04</time>
   <time name="diis">    0.15    0.15</time>
   <time name="orth">    0.00    0.00</time>
   <time name="total">    0.41    0.44</time>
   <energy>
    <i name="e_fr_energy">    -40.49385565 </i>
    <i name="e_wo_entrp">    -40.49443546 </i>
    <i name="e_0_energy">    -40.49404892 </i>
   </energy>
  </scstep>
  <scstep>
   <time name="diag">    0.03    0.04</time>
   <time name="diis">    0.15    0.15</time>
   <time name="orth">    0.00    0.00</time>
   <time name="total">    0.42    0.44</time>
   <energy>
    <i name="e_fr_energy">    -40.49381342 </i>
    <i name="e_wo_entrp">    -40.49439555 </i>
    <i name="e_0_energy">    -40.49400746 </i>
   </energy>
  </scstep>
  <scstep>
   <time name="diag">    0.04    0.04</time>
   <time name="diis">    0.14    0.15</time>
   <time name="orth">    0.00    0.00</time>
   <time name="total">    0.42    0.45</time>
   <energy>
    <i name="e_fr_energy">    -40.49381581 </i>
    <i name="e_wo_entrp">    -40.49442233 </i>
    <i name="e_0_energy">    -40.49401798 </i>
   </energy>
  </scstep>
  <scstep>
   <time name="diag">    0.04    0.04</time>
   <time name="diis">    0.15    0.15</time>
   <time name="orth">    0.00    0.00</time>
   <time name="total">    0.43    0.45</time>
   <energy>
    <i name="e_fr_energy">    -40.49440987 </i>
    <i name="e_wo_entrp">    -40.49440987 </i>
    <i name="e_0_energy">    -40.49440987 </i>
   </energy>
  </scstep>
  <scstep>
   <time name="diag">    0.04    0.04</time>
   <time name="diis">    0.13    0.13</time>
   <time name="orth">    0.00    0.00</time>
   <time name="total">    0.43    0.45</time>
   <energy>
    <i name="e_fr_energy">    -40.49441693 </i>
    <i name="e_wo_entrp">    -40.49441693 </i>
    <i name="e_0_energy">    -40.49441693 </i>
   </energy>
  </scstep>
  <scstep>
   <time name="diag">    0.04    0.04</time>
   <time name="diis">    0.11    0.11</time>
   <time name="orth">    0.00    0.00</time>
   <time name="total">    0.41    0.43</time>
   <energy>
    <i name="e_fr_energy">    -40.49382272 </i>
    <i name="e_wo_entrp">    -40.49452888 </i>
    <i name="e_0_energy">    -40.49405811 </i>
   </energy>
  </scstep>
  <scstep>
   <time name="diag">    0.04    0.04</time>
   <time name="diis">    0.11    0.11</time>
   <time name="orth">    0.00    0.00</time>
   <time name="total">    0.41    0.44</time>
   <energy>
    <i name="e_fr_energy">    -40.49381470 </i>
    <i name="e_wo_entrp">    -40.49455670 </i>
    <i name="e_0_energy">    -40.49406204 </i>
   </energy>
  </scstep>
  <scstep>
   <time name="diag">    0.04    0.04</time>
   <time name="diis">    0.11    0.11</time>
   <time name="orth">    0.00    0.00</time>
   <time name="total">    0.42    0.44</time>
   <energy>
    <i name="e_fr_energy">    -40.49380097 </i>
    <i name="e_wo_entrp">    -40.49459593 </i>
    <i name="e_0_energy">    -40.49406595 </i>
   </energy>
  </scstep>
  <scstep>
   <time name="diag">    0.04    0.04</time>
   <time name="diis">    0.11    0.11</time>
   <time name="orth">    0.00    0.00</time>
   <time name="total">    0.42    0.45</time>
   <energy>
    <i name="e_fr_energy">    -40.49379113 </i>
    <i name="e_wo_entrp">    -40.49458642 </i>
    <i name="e_0_energy">    -40.49405623 </i>
   </energy>
  </scstep>
  <scstep>
   <time name="diag">    0.04    0.04</time>
   <time name="diis">    0.10    0.11</time>
   <time name="orth">    0.00    0.00</time>
   <time name="total">    0.42    0.45</time>
   <energy>
    <i name="e_fr_energy">    -40.49378914 </i>
    <i name="e_wo_entrp">    -40.49458300 </i>
    <i name="e_0_energy">    -40.49405376 </i>
   </energy>
  </scstep>
  <scstep>
   <time name="diag">    0.03    0.04</time>
   <time name="diis">    0.11    0.11</time>
   <time name="orth">    0.00    0.00</time>
   <time name="total">    0.43    0.46</time>
   <energy>
    <i name="e_fr_energy">    -40.49378746 </i>
    <i name="e_wo_entrp">    -40.49459511 </i>
    <i name="e_0_energy">    -40.49405667 </i>
   </energy>
  </scstep>
  <scstep>
   <time name="diag">    0.04    0.04</time>
   <time name="diis">    0.10    0.10</time>
   <time name="orth">    0.00    0.00</time>
   <time name="total">    0.43    0.46</time>
   <energy>
    <i name="e_fr_energy">    -40.49378385 </i>
    <i name="e_wo_entrp">    -40.49459576 </i>
    <i name="e_0_energy">    -40.49405448 </i>
   </energy>
  </scstep>
  <scstep>
   <time name="diag">    0.03    0.04</time>
   <time name="diis">    0.10    0.10</time>
   <time name="orth">    0.00    0.00</time>
   <time name="total">    0.33    0.35</time>
   <energy>
    <i name="alphaZ">      0.09745814 </i>
    <i name="ewald">    520.31908462 </i>
    <i name="hartreedc">   -813.86495983 </i>
    <i name="XCdc">     44.15475497 </i>
    <i name="pawpsdc">    888.79615912 </i>
    <i name="pawaedc">   -890.30363268 </i>
    <i name="eentropy">      0.00079747 </i>
    <i name="bandstr">   -158.81968974 </i>
    <i name="atom">    369.12624373 </i>
    <i name="e_fr_energy">    -40.49378420 </i>
    <i name="e_wo_entrp">    -40.49458167 </i>
    <i name="e_0_energy">    -40.49405002 </i>
   </energy>
  </scstep>
  <structure>
   <crystal>
    <varray name="basis" >
     <v>      16.32993162      -8.16496581      -8.16496581 </v>
     <v>       0.00000000      14.14213562     -14.14213562 </v>
     <v>      11.54700538      11.54700538      11.54700538 </v>
    </varray>
    <i name="volume">   8000.00000000 </i>
    <varray name="rec_basis" >
     <v>       0.04082483      -0.02041241      -0.02041241 </v>
     <v>       0.00000000       0.03535534      -0.03535534 </v>
     <v>       0.02886751       0.02886751       0.02886751 </v>
    </varray>
   </crystal>
   <varray name="positions" >
    <v>       0.34996834       0.55335306       0.51333331 </v>
    <v>       0.40906104       0.55143780       0.56169911 </v>
    <v>       0.35333718       0.59635762       0.47917263 </v>
    <v>       0.34789191       0.50794774       0.48229575 </v>
    <v>       0.41182808       0.59736384       0.59191009 </v>
    <v>       0.45685616       0.54649952       0.53491363 </v>
    <v>       0.30206979       0.55719024       0.54011757 </v>
    <v>       0.40518758       0.50910612       0.59663593 </v>
   </varray>
  </structure>
  <varray name="forces" >
   <v>      -0.00300098       0.07409462       0.01161625 </v>
   <v>       0.00254251      -0.07278640      -0.00667803 </v>
   <v>       0.00039118      -0.02603184      -0.00421455 </v>
   <v>      -0.01263553      -0.01822845      -0.00092063 </v>
   <v>       0.01030633       0.02033438       0.00840023 </v>
   <v>      -0.00891256       0.02153311      -0.00466982 </v>
   <v>       0.01528897      -0.01650033      -0.00413168 </v>
   <v>      -0.00397991       0.01758490       0.00059823 </v>
  </varray>
  <varray name="stress" >
   <v>      -0.12731198       0.01563546       0.00251271 </v>
   <v>       0.01563546      -0.11796922      -0.00990274 </v>
   <v>       0.00251271      -0.00990274      -0.12830382 </v>
  </varray>
  <energy>
   <i name="e_fr_energy">    -40.52017488 </i>
   <i name="e_wo_entrp">    -40.52044070 </i>
   <i name="e_0_energy">      0.00079747 </i>
  </energy>
  <time name="totalsc">   18.85   20.45</time>
 </calculation>
 <calculation>
  <scstep>
   <time name="dav">    0.22    0.22</time>
   <time name="total">    0.80    0.81</time>
   <energy>
    <i name="alphaZ">      0.09745814 </i>
    <i name="ewald">    520.32156993 </i>
    <i name="hartreedc">   -813.86686880 </i>
    <i name="XCdc">     44.15479214 </i>
    <i name="pawpsdc">    888.81048107 </i>
    <i name="pawaedc">   -890.31796750 </i>
    <i name="eentropy">      0.00057979 </i>
    <i name="bandstr">   -158.81865302 </i>
    <i name="atom">    369.12624373 </i>
    <i name="e_fr_energy">    -40.49236451 </i>
    <i name="e_wo_entrp">    -40.49294431 </i>
    <i name="e_0_energy">    -40.49236897 </i>
   </energy>
  </scstep>
  <scstep>
   <time name="diag">    0.04    0.04</time>
   <time name="diis">    0.15    0.15</time>
   <time name="orth">    0.00    0.00</time>
   <time name="total">    0.42    0.44</time>
   <energy>
    <i name="e_fr_energy">    -40.49243513 </i>
    <i name="e_wo_entrp">    -40.49301492 </i>
    <i name="e_0_energy">    -40.49243959 </i>
   </energy>
  </scstep>
  <scstep>
   <time name="diag">    0.04    0.04</time>
   <time name="diis">    0.15    0.15</time>
   <time name="orth">    0.00    0.00</time>
   <time name="total">    0.46    0.54</time>
   <energy>
    <i name="e_fr_energy">    -40.49241985 </i>
    <i name="e_wo_entrp">    -40.49299964 </i>
    <i name="e_0_energy">    -40.49242431 </i>
   </energy>
  </scstep>
  <scstep>
   <time name="diag">    0.04    0.04</time>
   <time name="diis">    0.15    0.15</time>
   <time name="orth">    0.00    0.00</time>
   <time name="total">    0.38    0.40</time>
   <energy>
    <i name="alphaZ">      0.09745814 </i>
    <i name="ewald">    520.32156993 </i>
    <i name="hartreedc">   -813.86599518 </i>
    <i name="XCdc">     44.15471891 </i>
    <i name="pawpsdc">    888.75231508 </i>
    <i name="pawaedc">   -890.25981746 </i>
    <i name="eentropy">      0.00057979 </i>
    <i name="bandstr">   -158.81949211 </i>
    <i name="atom">    369.12624373 </i>
    <i name="e_fr_energy">    -40.49241917 </i>
    <i name="e_wo_entrp">    -40.49299897 </i>
    <i name="e_0_energy">    -40.49242363 </i>
   </energy>
  </scstep>
  <structure>
   <crystal>
    <varray name="basis" >
     <v>      16.32993162      -8.16496581      -8.16496581 </v>
     <v>       0.00000000      14.14213562     -14.14213562 </v>
     <v>      11.54700538      11.54700538      11.54700538 </v>
    </varray>
    <i name="volume">   8000.00000000 </i>
    <varray name="rec_basis" >
     <v>       0.04082483      -0.02041241      -0.02041241 </v>
     <v>       0.00000000       0.03535534      -0.03535534 </v>
     <v>       0.02886751       0.02886751       0.02886751 </v>
    </varray>
   </crystal>
   <varray name="positions" >
    <v>       0.34987802       0.55345963       0.51344850 </v>
    <v>       0.40914430       0.55132505       0.56159199 </v>
    <v>       0.35336774       0.59632041       0.47913105 </v>
    <v>       0.34788588       0.50791822       0.48225148 </v>
    <v>       0.41182008       0.59738420       0.59196446 </v>
    <v>       0.45682200       0.54654422       0.53492470 </v>
    <v>       0.30212022       0.55716914       0.54011013 </v>
    <v>       0.40516183       0.50913509       0.59665571 </v>
   </varray>
  </structure>
  <varray name="forces" >
   <v>       0.01369563      -0.28637393      -0.04745547 </v>
   <v>      -0.01193713       0.28127911       0.02659895 </v>
   <v>      -0.00289573       0.02770993       0.00134460 </v>
   <v>       0.02985577       0.11328638      -0.01477992 </v>
   <v>      -0.03200863      -0.10855847       0.02746774 </v>
   <v>       0.03870093      -0.08587604      -0.05322110 </v>
   <v>      -0.03880054       0.09565341       0.05502203 </v>
   <v>       0.00338971      -0.03712038       0.00502317 </v>
  </varray>
  <varray name="stress" >
   <v>      -0.12375745      -0.02396836      -0.00455769 </v>
   <v>      -0.02396836      -0.13769199       0.02387249 </v>
   <v>      -0.00455768       0.02387249      -0.11183827 </v>
  </varray>
  <energy>
   <i name="e_fr_energy">    -40.51880963 </i>
   <i name="e_wo_entrp">    -40.51900289 </i>
   <i name="e_0_energy">      0.00057979 </i>
  </energy>
  <time name="totalsc">    2.92    3.16</time>
 </calculation>
 <calculation>
  <scstep>
   <time name="dav">    0.22    0.22</time>
   <time name="total">    0.55    0.56</time>
   <energy>
    <i name="alphaZ">      0.09745814 </i>
    <i name="ewald">    520.32058148 </i>
    <i name="hartreedc">   -813.86688039 </i>
    <i name="XCdc">     44.15467733 </i>
    <i name="pawpsdc">    888.80844435 </i>
    <i name="pawaedc">   -890.31594701 </i>
    <i name="eentropy">      0.00058222 </i>
    <i name="bandstr">   -158.81886223 </i>
    <i name="atom">    369.12624373 </i>
    <i name="e_fr_energy">    -40.49370238 </i>
    <i name="e_wo_entrp">    -40.49428461 </i>
    <i name="e_0_energy">    -40.49370686 </i>
   </energy>
  </scstep>
  <scstep>
   <time name="diag">    0.04    0.04</time>
   <time name="diis">    0.15    0.15</time>
   <time name="orth">    0.00    0.00</time>
   <time name="total">    0.41    0.43</time>
   <energy>
    <i name="e_fr_energy">    -40.49432060 </i>
    <i name="e_wo_entrp">    -40.49432060 </i>
    <i name="e_0_energy">    -40.49432060 </i>
   </energy>
  </scstep>
  <scstep>
   <time name="diag">    0.04    0.04</time>
   <time name="diis">    0.15    0.15</time>
   <time name="orth">    0.00    0.00</time>
   <time name="total">    0.41    0.43</time>
   <energy>
    <i name="e_fr_energy">    -40.49430924 </i>
    <i name="e_wo_entrp">    -40.49430924 </i>
    <i name="e_0_energy">    -40.49430924 </i>
   </energy>
  </scstep>
  <scstep>
   <time name="diag">    0.03    0.04</time>
   <time name="diis">    0.15    0.15</time>
   <time name="orth">    0.00    0.00</time>
   <time name="total">    0.41    0.44</time>
   <energy>
    <i name="e_fr_energy">    -40.49431065 </i>
    <i name="e_wo_entrp">    -40.49431065 </i>
    <i name="e_0_energy">    -40.49431065 </i>
   </energy>
  </scstep>
  <scstep>
   <time name="diag">    0.04    0.04</time>
   <time name="diis">    0.11    0.11</time>
   <time name="orth">    0.00    0.00</time>
   <time name="total">    0.35    0.37</time>
   <energy>
    <i name="alphaZ">      0.09745814 </i>
    <i name="ewald">    520.32058148 </i>
    <i name="hartreedc">   -813.86697150 </i>
    <i name="XCdc">     44.15464428 </i>
    <i name="pawpsdc">    888.78485098 </i>
    <i name="pawaedc">   -890.29233436 </i>
    <i name="eentropy">      0.00000000 </i>
    <i name="bandstr">   -158.81878379 </i>
    <i name="atom">    369.12624373 </i>
    <i name="e_fr_energy">    -40.49431104 </i>
    <i name="e_wo_entrp">    -40.49431104 </i>
    <i name="e_0_energy">    -40.49431104 </i>
   </energy>
  </scstep>
  <structure>
   <crystal>
    <varray name="basis" >
     <v>      16.32993162      -8.16496581      -8.16496581 </v>
     <v>       0.00000000      14.14213562     -14.14213562 </v>
     <v>      11.54700538      11.54700538      11.54700538 </v>
    </varray>
    <i name="volume">   8000.00000000 </i>
    <varray name="rec_basis" >
     <v>       0.04082483      -0.02041241      -0.02041241 </v>
     <v>       0.00000000       0.03535534      -0.03535534 </v>
     <v>       0.02886751       0.02886751       0.02886751 </v>
    </varray>
   </crystal>
   <varray name="positions" >
    <v>       0.34994835       0.55337906       0.51336036 </v>
    <v>       0.40907972       0.55141092       0.56167346 </v>
    <v>       0.35336096       0.59632930       0.47913826 </v>
    <v>       0.34787833       0.50796141       0.48228682 </v>
    <v>       0.41182340       0.59733833       0.59193332 </v>
    <v>       0.45686415       0.54653321       0.53489706 </v>
    <v>       0.30207578       0.55718284       0.54014093 </v>
    <v>       0.40516940       0.50912088       0.59664780 </v>
   </varray>
  </structure>
  <varray name="forces" >
   <v>       0.00203032      -0.07555613      -0.01105972 </v>
   <v>      -0.00140563       0.07304708       0.00379350 </v>
   <v>      -0.00208265       0.01619030       0.00216551 </v>
   <v>       0.00703825       0.02309859       0.00790224 </v>
   <v>      -0.00906607      -0.01920966       0.00218752 </v>
   <v>       0.00998010      -0.01591166      -0.00350458 </v>
   <v>      -0.00711783       0.02308757      -0.00010758 </v>
   <v>       0.00062350      -0.02474610      -0.00137690 </v>
  </varray>
  <varray name="stress" >
   <v>      -0.12546911      -0.00555890      -0.00039202 </v>
   <v>      -0.00555890      -0.12491265      -0.00121147 </v>
   <v>      -0.00039202      -0.00121147      -0.12377815 </v>
  </varray>
  <energy>
   <i name="e_fr_energy">    -40.52070151 </i>
   <i name="e_wo_entrp">    -40.52070151 </i>
   <i name="e_0_energy">      0.00000000 </i>
  </energy>
  <time name="totalsc">    2.98    3.18</time>
 </calculation>
 <calculation>
  <scstep>
   <time name="dav">    0.35    0.35</time>
   <time name="total">    2.27    2.28</time>
   <energy>
    <i name="alphaZ">      0.09745814 </i>
    <i name="ewald">    520.32024845 </i>
    <i name="hartreedc">   -813.86497985 </i>
    <i name="XCdc">     44.15472674 </i>
    <i name="pawpsdc">    888.79006939 </i>
    <i name="pawaedc">   -890.29755308 </i>
    <i name="eentropy">      0.00000000 </i>
    <i name="bandstr">   -158.82060064 </i>
    <i name="atom">    369.12624373 </i>
    <i name="e_fr_energy">    -40.49438712 </i>
    <i name="e_wo_entrp">    -40.49438712 </i>
    <i name="e_0_energy">    -40.49438712 </i>
   </energy>
  </scstep>
  <scstep>
   <time name="diag">    0.04    0.04</time>
   <time name="diis">    0.14    0.14</time>
   <time name="orth">    0.00    0.00</time>
   <time name="total">    0.74    0.80</time>
   <energy>
    <i name="alphaZ">      0.09745814 </i>
    <i name="ewald">    520.32024845 </i>
    <i name="hartreedc">   -813.86567366 </i>
    <i name="XCdc">     44.15478334 </i>
    <i name="pawpsdc">    888.83741661 </i>
    <i name="pawaedc">   -890.34491129 </i>
    <i name="eentropy">      0.00000000 </i>
    <i name="bandstr">   -158.81995297 </i>
    <i name="atom">    369.12624373 </i>
    <i name="e_fr_energy">    -40.49438766 </i>
    <i name="e_wo_entrp">    -40.49438766 </i>
    <i name="e_0_energy">    -40.49438766 </i>
   </energy>
  </scstep>
  <structure>
   <crystal>
    <varray name="basis" >
     <v>      16.32993162      -8.16496581      -8.16496581 </v>
     <v>       0.00000000      14.14213562     -14.14213562 </v>
     <v>      11.54700538      11.54700538      11.54700538 </v>
    </varray>
    <i name="volume">   8000.00000000 </i>
    <varray name="rec_basis" >
     <v>       0.04082483      -0.02041241      -0.02041241 </v>
     <v>       0.00000000       0.03535534      -0.03535534 </v>
     <v>       0.02886751       0.02886751       0.02886751 </v>
    </varray>
   </crystal>
   <varray name="positions" >
    <v>       0.34995848       0.55336322       0.51334443 </v>
    <v>       0.40907237       0.55142829       0.56168608 </v>
    <v>       0.35335253       0.59633752       0.47914672 </v>
    <v>       0.34787335       0.50795175       0.48229636 </v>
    <v>       0.41182096       0.59734366       0.59193059 </v>
    <v>       0.45686213       0.54652768       0.53490513 </v>
    <v>       0.30208023       0.55719699       0.54013602 </v>
    <v>       0.40518002       0.50910686       0.59663268 </v>
   </varray>
  </structure>
  <varray name="forces" >
   <v>       0.00369774      -0.04942293      -0.01033901 </v>
   <v>      -0.00331294       0.04866236       0.00675510 </v>
   <v>      -0.00184855       0.01116801       0.00266266 </v>
   <v>       0.00459213       0.01354233       0.00855689 </v>
   <v>      -0.00663001      -0.01025445       0.00089193 </v>
   <v>       0.00885417      -0.01101819      -0.00317311 </v>
   <v>      -0.00530366       0.01687586      -0.00190330 </v>
   <v>      -0.00004889      -0.01955301      -0.00345115 </v>
  </varray>
  <varray name="stress" >
   <v>      -0.12573715      -0.00440288      -0.00045306 </v>
   <v>      -0.00440288      -0.12345609      -0.00175849 </v>
   <v>      -0.00045306      -0.00175849      -0.12426370 </v>
  </varray>
  <energy>
   <i name="e_fr_energy">    -40.52077853 </i>
   <i name="e_wo_entrp">    -40.52077853 </i>
   <i name="e_0_energy">      0.00000000 </i>
  </energy>
  <time name="totalsc">    3.85    4.03</time>
 </calculation>
 <calculation>
  <scstep>
   <time name="dav">    0.20    0.20</time>
   <time name="total">    0.43    0.44</time>
   <energy>
    <i name="alphaZ">      0.09745814 </i>
    <i name="ewald">    520.32796941 </i>
    <i name="hartreedc">   -813.87980956 </i>
    <i name="XCdc">     44.15463168 </i>
    <i name="pawpsdc">    888.83262566 </i>
    <i name="pawaedc">   -890.34012684 </i>
    <i name="eentropy">      0.00126523 </i>
    <i name="bandstr">   -158.81387317 </i>
    <i name="atom">    369.12624373 </i>
    <i name="e_fr_energy">    -40.49361573 </i>
    <i name="e_wo_entrp">    -40.49488096 </i>
    <i name="e_0_energy">    -40.49362546 </i>
   </energy>
  </scstep>
  <scstep>
   <time name="diag">    0.04    0.04</time>
   <time name="diis">    0.15    0.15</time>
   <time name="orth">    0.00    0.00</time>
   <time name="total">    0.41    0.44</time>
   <energy>
    <i name="e_fr_energy">    -40.49495414 </i>
    <i name="e_wo_entrp">    -40.49495414 </i>
    <i name="e_0_energy">    -40.49495414 </i>
   </energy>
  </scstep>
  <scstep>
   <time name="diag">    0.04    0.04</time>
   <time name="diis">    0.15    0.15</time>
   <time name="orth">    0.00    0.00</time>
   <time name="total">    0.42    0.44</time>
   <energy>
    <i name="e_fr_energy">    -40.49412571 </i>
    <i name="e_wo_entrp">    -40.49471432 </i>
    <i name="e_0_energy">    -40.49413024 </i>
   </energy>
  </scstep>
  <scstep>
   <time name="diag">    0.04    0.04</time>
   <time name="diis">    0.15    0.15</time>
   <time name="orth">    0.00    0.00</time>
   <time name="total">    0.41    0.44</time>
   <energy>
    <i name="e_fr_energy">    -40.49339052 </i>
    <i name="e_wo_entrp">    -40.49461543 </i>
    <i name="e_0_energy">    -40.49339995 </i>
   </energy>
  </scstep>
  <scstep>
   <time name="diag">    0.04    0.04</time>
   <time name="diis">    0.15    0.15</time>
   <time name="orth">    0.00    0.00</time>
   <time name="total">    0.42    0.44</time>
   <energy>
    <i name="e_fr_energy">    -40.49317637 </i>
    <i name="e_wo_entrp">    -40.49440319 </i>
    <i name="e_0_energy">    -40.49318580 </i>
   </energy>
  </scstep>
  <scstep>
   <time name="diag">    0.04    0.04</time>
   <time name="diis">    0.12    0.12</time>
   <time name="orth">    0.00    0.00</time>
   <time name="total">    0.39    0.41</time>
   <energy>
    <i name="e_fr_energy">    -40.49305689 </i>
    <i name="e_wo_entrp">    -40.49425033 </i>
    <i name="e_0_energy">    -40.49306607 </i>
   </energy>
  </scstep>
  <scstep>
   <time name="diag">    0.04    0.04</time>
   <time name="diis">    0.11    0.12</time>
   <time name="orth">    0.00    0.00</time>
   <time name="total">    0.39    0.41</time>
   <energy>
    <i name="e_fr_energy">    -40.49319169 </i>
    <i name="e_wo_entrp">    -40.49441502 </i>
    <i name="e_0_energy">    -40.49320110 </i>
   </energy>
  </scstep>
  <scstep>
   <time name="diag">    0.04    0.04</time>
   <time name="diis">    0.15    0.15</time>
   <time name="orth">    0.00    0.00</time>
   <time name="total">    0.42    0.45</time>
   <energy>
    <i name="e_fr_energy">    -40.49326709 </i>
    <i name="e_wo_entrp">    -40.49455325 </i>
    <i name="e_0_energy">    -40.49327699 </i>
   </energy>
  </scstep>
  <scstep>
   <time name="diag">    0.04    0.04</time>
   <time name="diis">    0.15    0.15</time>
   <time name="orth">    0.00    0.00</time>
   <time name="total">    0.43    0.45</time>
   <energy>
    <i name="e_fr_energy">    -40.49315945 </i>
    <i name="e_wo_entrp">    -40.49431997 </i>
    <i name="e_0_energy">    -40.49316838 </i>
   </energy>
  </scstep>
  <scstep>
   <time name="diag">    0.03    0.04</time>
   <time name="diis">    0.11    0.11</time>
   <time name="orth">    0.00    0.00</time>
   <time name="total">    0.40    0.42</time>
   <energy>
    <i name="e_fr_energy">    -40.49331420 </i>
    <i name="e_wo_entrp">    -40.49447499 </i>
    <i name="e_0_energy">    -40.49332313 </i>
   </energy>
  </scstep>
  <scstep>
   <time name="diag">    0.04    0.04</time>
   <time name="diis">    0.11    0.11</time>
   <time name="orth">    0.00    0.00</time>
   <time name="total">    0.39    0.42</time>
   <energy>
    <i name="e_fr_energy">    -40.49331883 </i>
    <i name="e_wo_entrp">    -40.49447869 </i>
    <i name="e_0_energy">    -40.49332775 </i>
   </energy>
  </scstep>
  <scstep>
   <time name="diag">    0.04    0.04</time>
   <time name="diis">    0.11    0.11</time>
   <time name="orth">    0.00    0.00</time>
   <time name="total">    0.39    0.41</time>
   <energy>
    <i name="e_fr_energy">    -40.49331546 </i>
    <i name="e_wo_entrp">    -40.49447532 </i>
    <i name="e_0_energy">    -40.49332439 </i>
   </energy>
  </scstep>
  <scstep>
   <time name="diag">    0.03    0.04</time>
   <time name="diis">    0.11    0.11</time>
   <time name="orth">    0.00    0.00</time>
   <time name="total">    0.39    0.41</time>
   <energy>
    <i name="e_fr_energy">    -40.49331883 </i>
    <i name="e_wo_entrp">    -40.49447980 </i>
    <i name="e_0_energy">    -40.49332776 </i>
   </energy>
  </scstep>
  <scstep>
   <time name="diag">    0.04    0.04</time>
   <time name="diis">    0.10    0.10</time>
   <time name="orth">    0.00    0.00</time>
   <time name="total">    0.34    0.36</time>
   <energy>
    <i name="alphaZ">      0.09745814 </i>
    <i name="ewald">    520.32796941 </i>
    <i name="hartreedc">   -813.87480344 </i>
    <i name="XCdc">     44.15419709 </i>
    <i name="pawpsdc">    888.77689351 </i>
    <i name="pawaedc">   -890.28433635 </i>
    <i name="eentropy">      0.00116012 </i>
    <i name="bandstr">   -158.81810198 </i>
    <i name="atom">    369.12624373 </i>
    <i name="e_fr_energy">    -40.49331976 </i>
    <i name="e_wo_entrp">    -40.49447989 </i>
    <i name="e_0_energy">    -40.49332868 </i>
   </energy>
  </scstep>
  <structure>
   <crystal>
    <varray name="basis" >
     <v>      16.32993162      -8.16496581      -8.16496581 </v>
     <v>       0.00000000      14.14213562     -14.14213562 </v>
     <v>      11.54700538      11.54700538      11.54700538 </v>
    </varray>
    <i name="volume">   8000.00000000 </i>
    <varray name="rec_basis" >
     <v>       0.04082483      -0.02041241      -0.02041241 </v>
     <v>       0.00000000       0.03535534      -0.03535534 </v>
     <v>       0.02886751       0.02886751       0.02886751 </v>
    </varray>
   </crystal>
   <varray name="positions" >
    <v>       0.34999440       0.55334741       0.51331377 </v>
    <v>       0.40903664       0.55144565       0.56171738 </v>
    <v>       0.35333095       0.59634963       0.47916628 </v>
    <v>       0.34786019       0.50791442       0.48231926 </v>
    <v>       0.41180927       0.59736484       0.59192932 </v>
    <v>       0.45687236       0.54651884       0.53492255 </v>
    <v>       0.30208566       0.55723677       0.54012472 </v>
    <v>       0.40521060       0.50907839       0.59658475 </v>
   </varray>
  </structure>
  <varray name="forces" >
   <v>      -0.01132129       0.01797527       0.00237442 </v>
   <v>       0.01175369      -0.02332379      -0.01001073 </v>
   <v>       0.00137643      -0.00618182      -0.00452975 </v>
   <v>      -0.00003707       0.00297111       0.00800821 </v>
   <v>      -0.00088950       0.00146326       0.00009894 </v>
   <v>      -0.00244258       0.01903285       0.00132928 </v>
   <v>       0.00333310      -0.00934915      -0.00427880 </v>
   <v>      -0.00177279      -0.00258773       0.00700842 </v>
  </varray>
  <varray name="stress" >
   <v>      -0.12473703       0.00093500       0.00055902 </v>
   <v>       0.00093500      -0.12923901      -0.00328306 </v>
   <v>       0.00055902      -0.00328306      -0.12133603 </v>
  </varray>
  <energy>
   <i name="e_fr_energy">    -40.51970876 </i>
   <i name="e_wo_entrp">    -40.52009547 </i>
   <i name="e_0_energy">      0.00116012 </i>
  </energy>
  <time name="totalsc">    6.49    6.89</time>
 </calculation>
 <calculation>
  <scstep>
   <time name="dav">    0.31    0.31</time>
   <time name="total">    0.98    0.99</time>
   <energy>
    <i name="alphaZ">      0.09745814 </i>
    <i name="ewald">    520.31638878 </i>
    <i name="hartreedc">   -813.85652868 </i>
    <i name="XCdc">     44.15440966 </i>
    <i name="pawpsdc">    888.77647714 </i>
    <i name="pawaedc">   -890.28392065 </i>
    <i name="eentropy">      0.00125193 </i>
    <i name="bandstr">   -158.82521779 </i>
    <i name="atom">    369.12624373 </i>
    <i name="e_fr_energy">    -40.49343774 </i>
    <i name="e_wo_entrp">    -40.49468968 </i>
    <i name="e_0_energy">    -40.49344737 </i>
   </energy>
  </scstep>
  <scstep>
   <time name="diag">    0.04    0.04</time>
   <time name="diis">    0.15    0.15</time>
   <time name="orth">    0.00    0.00</time>
   <time name="total">    0.42    0.44</time>
   <energy>
    <i name="e_fr_energy">    -40.49492037 </i>
    <i name="e_wo_entrp">    -40.49492037 </i>
    <i name="e_0_energy">    -40.49492037 </i>
   </energy>
  </scstep>
  <scstep>
   <time name="diag">    0.04    0.04</time>
   <time name="diis">    0.15    0.15</time>
   <time name="orth">    0.00    0.00</time>
   <time name="total">    0.42    0.44</time>
   <energy>
    <i name="e_fr_energy">    -40.49412021 </i>
    <i name="e_wo_entrp">    -40.49470958 </i>
    <i name="e_0_energy">    -40.49412475 </i>
   </energy>
  </scstep>
  <scstep>
   <time name="diag">    0.04    0.04</time>
   <time name="diis">    0.15    0.15</time>
   <time name="orth">    0.00    0.00</time>
   <time name="total">    0.42    0.44</time>
   <energy>
    <i name="e_fr_energy">    -40.49360489 </i>
    <i name="e_wo_entrp">    -40.49488858 </i>
    <i name="e_0_energy">    -40.49361476 </i>
   </energy>
  </scstep>
  <scstep>
   <time name="diag">    0.04    0.04</time>
   <time name="diis">    0.15    0.15</time>
   <time name="orth">    0.00    0.00</time>
   <time name="total">    0.42    0.44</time>
   <energy>
    <i name="e_fr_energy">    -40.49332842 </i>
    <i name="e_wo_entrp">    -40.49454098 </i>
    <i name="e_0_energy">    -40.49333774 </i>
   </energy>
  </scstep>
  <scstep>
   <time name="diag">    0.04    0.04</time>
   <time name="diis">    0.15    0.15</time>
   <time name="orth">    0.00    0.00</time>
   <time name="total">    0.42    0.44</time>
   <energy>
    <i name="e_fr_energy">    -40.49302471 </i>
    <i name="e_wo_entrp">    -40.49430444 </i>
    <i name="e_0_energy">    -40.49303456 </i>
   </energy>
  </scstep>
  <scstep>
   <time name="diag">    0.04    0.04</time>
   <time name="diis">    0.15    0.15</time>
   <time name="orth">    0.00    0.00</time>
   <time name="total">    0.42    0.44</time>
   <energy>
    <i name="e_fr_energy">    -40.49322429 </i>
    <i name="e_wo_entrp">    -40.49393071 </i>
    <i name="e_0_energy">    -40.49322973 </i>
   </energy>
  </scstep>
  <scstep>
   <time name="diag">    0.04    0.04</time>
   <time name="diis">    0.15    0.15</time>
   <time name="orth">    0.00    0.00</time>
   <time name="total">    0.43    0.45</time>
   <energy>
    <i name="e_fr_energy">    -40.49386924 </i>
    <i name="e_wo_entrp">    -40.49451741 </i>
    <i name="e_0_energy">    -40.49387422 </i>
   </energy>
  </scstep>
  <scstep>
   <time name="diag">    0.04    0.04</time>
   <time name="diis">    0.11    0.11</time>
   <time name="orth">    0.00    0.00</time>
   <time name="total">    0.38    0.41</time>
   <energy>
    <i name="e_fr_energy">    -40.49396896 </i>
    <i name="e_wo_entrp">    -40.49460741 </i>
    <i name="e_0_energy">    -40.49397387 </i>
   </energy>
  </scstep>
  <scstep>
   <time name="diag">    0.04    0.04</time>
   <time name="diis">    0.14    0.14</time>
   <time name="orth">    0.00    0.00</time>
   <time name="total">    0.41    0.43</time>
   <energy>
    <i name="e_fr_energy">    -40.49400627 </i>
    <i name="e_wo_entrp">    -40.49461775 </i>
    <i name="e_0_energy">    -40.49401097 </i>
   </energy>
  </scstep>
  <scstep>
   <time name="diag">    0.04    0.04</time>
   <time name="diis">    0.11    0.11</time>
   <time name="orth">    0.00    0.00</time>
   <time name="total">    0.38    0.41</time>
   <energy>
    <i name="e_fr_energy">    -40.49402685 </i>
    <i name="e_wo_entrp">    -40.49462931 </i>
    <i name="e_0_energy">    -40.49403148 </i>
   </energy>
  </scstep>
  <scstep>
   <time name="diag">    0.04    0.04</time>
   <time name="diis">    0.15    0.15</time>
   <time name="orth">    0.00    0.00</time>
   <time name="total">    0.42    0.44</time>
   <energy>
    <i name="e_fr_energy">    -40.49409158 </i>
    <i name="e_wo_entrp">    -40.49467425 </i>
    <i name="e_0_energy">    -40.49409606 </i>
   </energy>
  </scstep>
  <scstep>
   <time name="diag">    0.04    0.04</time>
   <time name="diis">    0.11    0.11</time>
   <time name="orth">    0.00    0.00</time>
   <time name="total">    0.38    0.41</time>
   <energy>
    <i name="e_fr_energy">    -40.49468829 </i>
    <i name="e_wo_entrp">    -40.49468829 </i>
    <i name="e_0_energy">    -40.49468829 </i>
   </energy>
  </scstep>
  <scstep>
   <time name="diag">    0.04    0.04</time>
   <time name="diis">    0.11    0.11</time>
   <time name="orth">    0.00    0.00</time>
   <time name="total">    0.38    0.41</time>
   <energy>
    <i name="e_fr_energy">    -40.49410130 </i>
    <i name="e_wo_entrp">    -40.49468359 </i>
    <i name="e_0_energy">    -40.49410578 </i>
   </energy>
  </scstep>
  <scstep>
   <time name="diag">    0.04    0.04</time>
   <time name="diis">    0.10    0.10</time>
   <time name="orth">    0.00    0.00</time>
   <time name="total">    0.38    0.40</time>
   <energy>
    <i name="e_fr_energy">    -40.49410020 </i>
    <i name="e_wo_entrp">    -40.49468257 </i>
    <i name="e_0_energy">    -40.49410467 </i>
   </energy>
  </scstep>
  <scstep>
   <time name="diag">    0.04    0.04</time>
   <time name="diis">    0.09    0.09</time>
   <time name="orth">    0.00    0.00</time>
   <time name="total">    0.32    0.35</time>
   <energy>
    <i name="alphaZ">      0.09745814 </i>
    <i name="ewald">    520.31638878 </i>
    <i name="hartreedc">   -813.86348043 </i>
    <i name="XCdc">     44.15500734 </i>
    <i name="pawpsdc">    888.78631982 </i>
    <i name="pawaedc">   -890.29383767 </i>
    <i name="eentropy">      0.00058241 </i>
    <i name="bandstr">   -158.81878191 </i>
    <i name="atom">    369.12624373 </i>
    <i name="e_fr_energy">    -40.49409980 </i>
    <i name="e_wo_entrp">    -40.49468221 </i>
    <i name="e_0_energy">    -40.49410428 </i>
   </energy>
  </scstep>
  <structure>
   <crystal>
    <varray name="basis" >
     <v>      16.32993162      -8.16496581      -8.16496581 </v>
     <v>       0.00000000      14.14213562     -14.14213562 </v>
     <v>      11.54700538      11.54700538      11.54700538 </v>
    </varray>
    <i name="volume">   8000.00000000 </i>
    <varray name="rec_basis" >
     <v>       0.04082483      -0.02041241      -0.02041241 </v>
     <v>       0.00000000       0.03535534      -0.03535534 </v>
     <v>       0.02886751       0.02886751       0.02886751 </v>
    </varray>
   </crystal>
   <varray name="positions" >
    <v>       0.34998308       0.55335111       0.51331047 </v>
    <v>       0.40905438       0.55144415       0.56171251 </v>
    <v>       0.35333655       0.59634884       0.47916084 </v>
    <v>       0.34785491       0.50791611       0.48232925 </v>
    <v>       0.41180835       0.59736039       0.59192643 </v>
    <v>       0.45686634       0.54653119       0.53492985 </v>
    <v>       0.30208914       0.55723359       0.54012221 </v>
    <v>       0.40520732       0.50907057       0.59658646 </v>
   </varray>
  </structure>
  <varray name="forces" >
   <v>       0.00585095      -0.03119799      -0.00329984 </v>
   <v>      -0.00596682       0.03386042       0.00481798 </v>
   <v>       0.00014782       0.00164694      -0.00150990 </v>
   <v>       0.00621427       0.00936243       0.00271568 </v>
   <v>      -0.00813587      -0.00735917       0.00626669 </v>
   <v>       0.01312311      -0.00907627      -0.00612533 </v>
   <v>      -0.00873426       0.01244546      -0.00109788 </v>
   <v>      -0.00249921      -0.00968182      -0.00176740 </v>
  </varray>
  <varray name="stress" >
   <v>      -0.12438157      -0.01615150      -0.00968261 </v>
   <v>      -0.01615150      -0.12213410       0.02123269 </v>
   <v>      -0.00968261       0.02123269      -0.12682274 </v>
  </varray>
  <energy>
   <i name="e_fr_energy">    -40.52049144 </i>
   <i name="e_wo_entrp">    -40.52068558 </i>
   <i name="e_0_energy">      0.00058241 </i>
  </energy>
  <time name="totalsc">    7.84    8.28</time>
 </calculation>
 <calculation>
  <scstep>
   <time name="dav">    1.23    1.23</time>
   <time name="total">    3.12    3.13</time>
   <energy>
    <i name="alphaZ">      0.09745814 </i>
    <i name="ewald">    520.31533625 </i>
    <i name="hartreedc">   -813.85987032 </i>
    <i name="XCdc">     44.15499203 </i>
    <i name="pawpsdc">    888.78435366 </i>
    <i name="pawaedc">   -890.29185737 </i>
    <i name="eentropy">      0.00000000 </i>
    <i name="bandstr">   -158.82135225 </i>
    <i name="atom">    369.12624373 </i>
    <i name="e_fr_energy">    -40.49469615 </i>
    <i name="e_wo_entrp">    -40.49469615 </i>
    <i name="e_0_energy">    -40.49469615 </i>
   </energy>
  </scstep>
  <scstep>
   <time name="diag">    0.03    0.04</time>
   <time name="diis">    0.15    0.15</time>
   <time name="orth">    0.00    0.00</time>
   <time name="total">    0.43    0.45</time>
   <energy>
    <i name="e_fr_energy">    -40.49393113 </i>
    <i name="e_wo_entrp">    -40.49464452 </i>
    <i name="e_0_energy">    -40.49393662 </i>
   </energy>
  </scstep>
  <scstep>
   <time name="diag">    0.04    0.04</time>
   <time name="diis">    0.15    0.15</time>
   <time name="orth">    0.00    0.00</time>
   <time name="total">    0.42    0.45</time>
   <energy>
    <i name="e_fr_energy">    -40.49401682 </i>
    <i name="e_wo_entrp">    -40.49459995 </i>
    <i name="e_0_energy">    -40.49402130 </i>
   </energy>
  </scstep>
  <scstep>
   <time name="diag">    0.04    0.04</time>
   <time name="diis">    0.15    0.15</time>
   <time name="orth">    0.00    0.00</time>
   <time name="total">    0.42    0.44</time>
   <energy>
    <i name="e_fr_energy">    -40.49346545 </i>
    <i name="e_wo_entrp">    -40.49474478 </i>
    <i name="e_0_energy">    -40.49347529 </i>
   </energy>
  </scstep>
  <scstep>
   <time name="diag">    0.04    0.04</time>
   <time name="diis">    0.15    0.15</time>
   <time name="orth">    0.00    0.00</time>
   <time name="total">    0.42    0.44</time>
   <energy>
    <i name="e_fr_energy">    -40.49375355 </i>
    <i name="e_wo_entrp">    -40.49443413 </i>
    <i name="e_0_energy">    -40.49375878 </i>
   </energy>
  </scstep>
  <scstep>
   <time name="diag">    2.26    2.89</time>
   <time name="diis">    2.87    2.90</time>
   <time name="orth">    0.00    0.00</time>
   <time name="total">    6.83    8.11</time>
   <energy>
    <i name="e_fr_energy">    -40.49393007 </i>
    <i name="e_wo_entrp">    -40.49471350 </i>
    <i name="e_0_energy">    -40.49393609 </i>
   </energy>
  </scstep>
  <scstep>
   <time name="diag">    0.04    0.04</time>
   <time name="diis">    0.15    0.15</time>
   <time name="orth">    0.00    0.00</time>
   <time name="total">    0.44    0.46</time>
   <energy>
    <i name="e_fr_energy">    -40.49335484 </i>
    <i name="e_wo_entrp">    -40.49456914 </i>
    <i name="e_0_energy">    -40.49336418 </i>
   </energy>
  </scstep>
  <scstep>
   <time name="diag">    0.04    0.04</time>
   <time name="diis">    0.15    0.15</time>
   <time name="orth">    0.00    0.00</time>
   <time name="total">    0.42    0.45</time>
   <energy>
    <i name="e_fr_energy">    -40.49310142 </i>
    <i name="e_wo_entrp">    -40.49428008 </i>
    <i name="e_0_energy">    -40.49311048 </i>
   </energy>
  </scstep>
  <scstep>
   <time name="diag">    0.04    0.04</time>
   <time name="diis">    0.15    0.15</time>
   <time name="orth">    0.00    0.00</time>
   <time name="total">    0.42    0.44</time>
   <energy>
    <i name="e_fr_energy">    -40.49320939 </i>
    <i name="e_wo_entrp">    -40.49439598 </i>
    <i name="e_0_energy">    -40.49321852 </i>
   </energy>
  </scstep>
  <scstep>
   <time name="diag">    0.04    0.04</time>
   <time name="diis">    0.15    0.15</time>
   <time name="orth">    0.00    0.00</time>
   <time name="total">    0.42    0.44</time>
   <energy>
    <i name="e_fr_energy">    -40.49330005 </i>
    <i name="e_wo_entrp">    -40.49449911 </i>
    <i name="e_0_energy">    -40.49330928 </i>
   </energy>
  </scstep>
  <scstep>
   <time name="diag">    0.04    0.04</time>
   <time name="diis">    0.15    0.15</time>
   <time name="orth">    0.00    0.00</time>
   <time name="total">    0.42    0.44</time>
   <energy>
    <i name="e_fr_energy">    -40.49322792 </i>
    <i name="e_wo_entrp">    -40.49439688 </i>
    <i name="e_0_energy">    -40.49323692 </i>
   </energy>
  </scstep>
  <scstep>
   <time name="diag">    0.04    0.04</time>
   <time name="diis">    0.13    0.13</time>
   <time name="orth">    0.00    0.00</time>
   <time name="total">    0.41    0.43</time>
   <energy>
    <i name="e_fr_energy">    -40.49330450 </i>
    <i name="e_wo_entrp">    -40.49446532 </i>
    <i name="e_0_energy">    -40.49331343 </i>
   </energy>
  </scstep>
  <scstep>
   <time name="diag">    0.03    0.04</time>
   <time name="diis">    0.11    0.11</time>
   <time name="orth">    0.00    0.00</time>
   <time name="total">    0.38    0.41</time>
   <energy>
    <i name="e_fr_energy">    -40.49331885 </i>
    <i name="e_wo_entrp">    -40.49447922 </i>
    <i name="e_0_energy">    -40.49332777 </i>
   </energy>
  </scstep>
  <scstep>
   <time name="diag">    0.04    0.04</time>
   <time name="diis">    0.10    0.10</time>
   <time name="orth">    0.00    0.00</time>
   <time name="total">    0.38    0.40</time>
   <energy>
    <i name="e_fr_energy">    -40.49332057 </i>
    <i name="e_wo_entrp">    -40.49448055 </i>
    <i name="e_0_energy">    -40.49332949 </i>
   </energy>
  </scstep>
  <scstep>
   <time name="diag">    0.04    0.04</time>
   <time name="diis">    0.11    0.11</time>
   <time name="orth">    0.00    0.00</time>
   <time name="total">    0.39    0.41</time>
   <energy>
    <i name="e_fr_energy">    -40.49332459 </i>
    <i name="e_wo_entrp">    -40.49448473 </i>
    <i name="e_0_energy">    -40.49333351 </i>
   </energy>
  </scstep>
  <scstep>
   <time name="diag">    0.04    0.04</time>
   <time name="diis">    0.11    0.11</time>
   <time name="orth">    0.00    0.00</time>
   <time name="total">    0.34    0.37</time>
   <energy>
    <i name="alphaZ">      0.09745814 </i>
    <i name="ewald">    520.31533625 </i>
    <i name="hartreedc">   -813.86207353 </i>
    <i name="XCdc">     44.15512634 </i>
    <i name="pawpsdc">    888.79822150 </i>
    <i name="pawaedc">   -890.30574581 </i>
    <i name="eentropy">      0.00115983 </i>
    <i name="bandstr">   -158.81905044 </i>
    <i name="atom">    369.12624373 </i>
    <i name="e_fr_energy">    -40.49332399 </i>
    <i name="e_wo_entrp">    -40.49448382 </i>
    <i name="e_0_energy">    -40.49333291 </i>
   </energy>
  </scstep>
  <structure>
   <crystal>
    <varray name="basis" >
     <v>      16.32993162      -8.16496581      -8.16496581 </v>
     <v>       0.00000000      14.14213562     -14.14213562 </v>
     <v>      11.54700538      11.54700538      11.54700538 </v>
    </varray>
    <i name="volume">   8000.00000000 </i>
    <varray name="rec_basis" >
     <v>       0.04082483      -0.02041241      -0.02041241 </v>
     <v>       0.00000000       0.03535534      -0.03535534 </v>
     <v>       0.02886751       0.02886751       0.02886751 </v>
    </varray>
   </crystal>
   <varray name="positions" >
    <v>       0.34998810       0.55334245       0.51330117 </v>
    <v>       0.40905080       0.55145476       0.56171999 </v>
    <v>       0.35334096       0.59635059       0.47915663 </v>
    <v>       0.34785123       0.50791078       0.48234713 </v>
    <v>       0.41179650       0.59735520       0.59192334 </v>
    <v>       0.45687722       0.54654027       0.53494249 </v>
    <v>       0.30208575       0.55724561       0.54011391 </v>
    <v>       0.40520952       0.50905629       0.59657336 </v>
   </varray>
  </structure>
  <varray name="forces" >
   <v>       0.00707038       0.01647385      -0.00716884 </v>
   <v>      -0.00740190      -0.01526817       0.01171673 </v>
   <v>      -0.00006036      -0.00342821      -0.00074370 </v>
   <v>      -0.00374324      -0.00693413       0.01073709 </v>
   <v>       0.00248901       0.00984715      -0.00318441 </v>
   <v>       0.00266384       0.00719220      -0.00387760 </v>
   <v>       0.00129286      -0.00341092      -0.00383578 </v>
   <v>      -0.00231059      -0.00447177      -0.00364349 </v>
  </varray>
  <varray name="stress" >
   <v>      -0.12686131       0.00079012      -0.00122295 </v>
   <v>       0.00079012      -0.12238695      -0.00235487 </v>
   <v>      -0.00122295      -0.00235487      -0.12372015 </v>
  </varray>
  <energy>
   <i name="e_fr_energy">    -40.51971609 </i>
   <i name="e_wo_entrp">    -40.52010270 </i>
   <i name="e_0_energy">      0.00115983 </i>
  </energy>
  <time name="totalsc">   16.51   18.23</time>
 </calculation>
 <calculation>
  <scstep>
   <time name="dav">    0.35    0.35</time>
   <time name="total">    0.66    0.75</time>
   <energy>
    <i name="alphaZ">      0.09745814 </i>
    <i name="ewald">    520.32030678 </i>
    <i name="hartreedc">   -813.87023595 </i>
    <i name="XCdc">     44.15501535 </i>
    <i name="pawpsdc">    888.79810147 </i>
    <i name="pawaedc">   -890.30562620 </i>
    <i name="eentropy">      0.00126400 </i>
    <i name="bandstr">   -158.81598427 </i>
    <i name="atom">    369.12624373 </i>
    <i name="e_fr_energy">    -40.49345695 </i>
    <i name="e_wo_entrp">    -40.49472096 </i>
    <i name="e_0_energy">    -40.49346668 </i>
   </energy>
  </scstep>
  <scstep>
   <time name="diag">    0.04    0.04</time>
   <time name="diis">    0.15    0.15</time>
   <time name="orth">    0.00    0.00</time>
   <time name="total">    0.43    0.45</time>
   <energy>
    <i name="e_fr_energy">    -40.49501360 </i>
    <i name="e_wo_entrp">    -40.49501360 </i>
    <i name="e_0_energy">    -40.49501360 </i>
   </energy>
  </scstep>
  <scstep>
   <time name="diag">    0.04    0.04</time>
   <time name="diis">    0.15    0.15</time>
   <time name="orth">    0.00    0.00</time>
   <time name="total">    0.43    0.45</time>
   <energy>
    <i name="e_fr_energy">    -40.49416750 </i>
    <i name="e_wo_entrp">    -40.49475662 </i>
    <i name="e_0_energy">    -40.49417203 </i>
   </energy>
  </scstep>
  <scstep>
   <time name="diag">    0.04    0.04</time>
   <time name="diis">    0.15    0.15</time>
   <time name="orth">    0.00    0.00</time>
   <time name="total">    0.43    0.45</time>
   <energy>
    <i name="e_fr_energy">    -40.49369633 </i>
    <i name="e_wo_entrp">    -40.49495945 </i>
    <i name="e_0_energy">    -40.49370605 </i>
   </energy>
  </scstep>
  <scstep>
   <time name="diag">    0.04    0.04</time>
   <time name="diis">    0.15    0.15</time>
   <time name="orth">    0.00    0.00</time>
   <time name="total">    0.42    0.44</time>
   <energy>
    <i name="e_fr_energy">    -40.49329071 </i>
    <i name="e_wo_entrp">    -40.49457595 </i>
    <i name="e_0_energy">    -40.49330059 </i>
   </energy>
  </scstep>
  <scstep>
   <time name="diag">    0.04    0.04</time>
   <time name="diis">    0.15    0.15</time>
   <time name="orth">    0.00    0.00</time>
   <time name="total">    0.42    0.44</time>
   <energy>
    <i name="e_fr_energy">    -40.49294138 </i>
    <i name="e_wo_entrp">    -40.49415943 </i>
    <i name="e_0_energy">    -40.49295075 </i>
   </energy>
  </scstep>
  <scstep>
   <time name="diag">    0.04    0.04</time>
   <time name="diis">    0.15    0.15</time>
   <time name="orth">    0.00    0.00</time>
   <time name="total">    0.42    0.44</time>
   <energy>
    <i name="e_fr_energy">    -40.49317201 </i>
    <i name="e_wo_entrp">    -40.49443868 </i>
    <i name="e_0_energy">    -40.49318176 </i>
   </energy>
  </scstep>
  <scstep>
   <time name="diag">    0.04    0.04</time>
   <time name="diis">    0.15    0.15</time>
   <time name="orth">    0.00    0.00</time>
   <time name="total">    0.42    0.44</time>
   <energy>
    <i name="e_fr_energy">    -40.49324475 </i>
    <i name="e_wo_entrp">    -40.49441805 </i>
    <i name="e_0_energy">    -40.49325377 </i>
   </energy>
  </scstep>
  <scstep>
   <time name="diag">    0.04    0.04</time>
   <time name="diis">    0.14    0.15</time>
   <time name="orth">    0.00    0.00</time>
   <time name="total">    0.42    0.44</time>
   <energy>
    <i name="e_fr_energy">    -40.49332042 </i>
    <i name="e_wo_entrp">    -40.49449434 </i>
    <i name="e_0_energy">    -40.49332945 </i>
   </energy>
  </scstep>
  <scstep>
   <time name="diag">    0.04    0.04</time>
   <time name="diis">    0.14    0.14</time>
   <time name="orth">    0.00    0.00</time>
   <time name="total">    0.41    0.41</time>
   <energy>
    <i name="e_fr_energy">    -40.49333500 </i>
    <i name="e_wo_entrp">    -40.49449862 </i>
    <i name="e_0_energy">    -40.49334395 </i>
   </energy>
  </scstep>
  <scstep>
   <time name="diag">    0.04    0.04</time>
   <time name="diis">    0.11    0.11</time>
   <time name="orth">    0.00    0.00</time>
   <time name="total">    0.39    0.39</time>
   <energy>
    <i name="e_fr_energy">    -40.49332386 </i>
    <i name="e_wo_entrp">    -40.49448685 </i>
    <i name="e_0_energy">    -40.49333281 </i>
   </energy>
  </scstep>
  <scstep>
   <time name="diag">    0.04    0.04</time>
   <time name="diis">    0.11    0.11</time>
   <time name="orth">    0.00    0.00</time>
   <time name="total">    0.39    0.39</time>
   <energy>
    <i name="e_fr_energy">    -40.49333905 </i>
    <i name="e_wo_entrp">    -40.49449905 </i>
    <i name="e_0_energy">    -40.49334797 </i>
   </energy>
  </scstep>
  <scstep>
   <time name="diag">    0.04    0.04</time>
   <time name="diis">    0.10    0.10</time>
   <time name="orth">    0.00    0.00</time>
   <time name="total">    0.34    0.34</time>
   <energy>
    <i name="alphaZ">      0.09745814 </i>
    <i name="ewald">    520.32030678 </i>
    <i name="hartreedc">   -813.86724187 </i>
    <i name="XCdc">     44.15475735 </i>
    <i name="pawpsdc">    888.79008969 </i>
    <i name="pawaedc">   -890.29757946 </i>
    <i name="eentropy">      0.00115973 </i>
    <i name="bandstr">   -158.81853400 </i>
    <i name="atom">    369.12624373 </i>
    <i name="e_fr_energy">    -40.49333992 </i>
    <i name="e_wo_entrp">    -40.49449964 </i>
    <i name="e_0_energy">    -40.49334884 </i>
   </energy>
  </scstep>
  <structure>
   <crystal>
    <varray name="basis" >
     <v>      16.32993162      -8.16496581      -8.16496581 </v>
     <v>       0.00000000      14.14213562     -14.14213562 </v>
     <v>      11.54700538      11.54700538      11.54700538 </v>
    </varray>
    <i name="volume">   8000.00000000 </i>
    <varray name="rec_basis" >
     <v>       0.04082483      -0.02041241      -0.02041241 </v>
     <v>       0.00000000       0.03535534      -0.03535534 </v>
     <v>       0.02886751       0.02886751       0.02886751 </v>
    </varray>
   </crystal>
   <varray name="positions" >
    <v>       0.34999128       0.55335096       0.51330548 </v>
    <v>       0.40904579       0.55144456       0.56171786 </v>
    <v>       0.35334170       0.59634927       0.47915544 </v>
    <v>       0.34784886       0.50790655       0.48234541 </v>
    <v>       0.41179828       0.59735919       0.59192586 </v>
    <v>       0.45687805       0.54654360       0.53494099 </v>
    <v>       0.30208651       0.55724360       0.54011464 </v>
    <v>       0.40520959       0.50905821       0.59657233 </v>
   </varray>
  </structure>
  <varray name="forces" >
   <v>      -0.00068866       0.00482020       0.01101176 </v>
   <v>       0.00070910      -0.00537497      -0.01109889 </v>
   <v>      -0.00204364      -0.00262603      -0.00650205 </v>
   <v>       0.00015043       0.00086020       0.00511428 </v>
   <v>      -0.00148405       0.00207150       0.00294716 </v>
   <v>       0.00014784       0.00791443       0.00043981 </v>
   <v>       0.00264143      -0.00236805      -0.00666830 </v>
   <v>       0.00056755      -0.00529729       0.00475622 </v>
  </varray>
  <varray name="stress" >
   <v>      -0.12629370      -0.00095070       0.00218564 </v>
   <v>      -0.00095070      -0.12877501      -0.00195563 </v>
   <v>       0.00218564      -0.00195563      -0.11886563 </v>
  </varray>
  <energy>
   <i name="e_fr_energy">    -40.51973082 </i>
   <i name="e_wo_entrp">    -40.52011740 </i>
   <i name="e_0_energy">      0.00115973 </i>
  </energy>
  <time name="totalsc">    6.44    6.73</time>
 </calculation>
 <calculation>
  <scstep>
   <time name="dav">    0.22    0.22</time>
   <time name="total">    0.46    0.47</time>
   <energy>
    <i name="alphaZ">      0.09745814 </i>
    <i name="ewald">    520.32629205 </i>
    <i name="hartreedc">   -813.87678926 </i>
    <i name="XCdc">     44.15463531 </i>
    <i name="pawpsdc">    888.78992437 </i>
    <i name="pawaedc">   -890.29741477 </i>
    <i name="eentropy">      0.00119628 </i>
    <i name="bandstr">   -158.81493346 </i>
    <i name="atom">    369.12624373 </i>
    <i name="e_fr_energy">    -40.49338761 </i>
    <i name="e_wo_entrp">    -40.49458389 </i>
    <i name="e_0_energy">    -40.49339682 </i>
   </energy>
  </scstep>
  <scstep>
   <time name="diag">    0.04    0.04</time>
   <time name="diis">    0.15    0.15</time>
   <time name="orth">    0.00    0.00</time>
   <time name="total">    0.42    0.44</time>
   <energy>
    <i name="e_fr_energy">    -40.49459280 </i>
    <i name="e_wo_entrp">    -40.49459280 </i>
    <i name="e_0_energy">    -40.49459280 </i>
   </energy>
  </scstep>
  <scstep>
   <time name="diag">    0.04    0.04</time>
   <time name="diis">    0.15    0.15</time>
   <time name="orth">    0.00    0.00</time>
   <time name="total">    0.42    0.44</time>
   <energy>
[...]
   <time name="orth">    0.00    0.00</time>
   <time name="total">    0.42    0.42</time>
   <energy>
    <i name="e_fr_energy">    -40.49389771 </i>
    <i name="e_wo_entrp">    -40.49462873 </i>
    <i name="e_0_energy">    -40.49390334 </i>
   </energy>
  </scstep>
  <scstep>
   <time name="diag">    0.04    0.04</time>
   <time name="diis">    0.11    0.11</time>
   <time name="orth">    0.00    0.00</time>
   <time name="total">    0.39    0.39</time>
   <energy>
    <i name="e_fr_energy">    -40.49388246 </i>
    <i name="e_wo_entrp">    -40.49462034 </i>
    <i name="e_0_energy">    -40.49388813 </i>
   </energy>
  </scstep>
  <scstep>
   <time name="diag">    0.04    0.04</time>
   <time name="diis">    0.11    0.11</time>
   <time name="orth">    0.00    0.00</time>
   <time name="total">    0.39    0.39</time>
   <energy>
    <i name="e_fr_energy">    -40.49388142 </i>
    <i name="e_wo_entrp">    -40.49461919 </i>
    <i name="e_0_energy">    -40.49388709 </i>
   </energy>
  </scstep>
  <scstep>
   <time name="diag">    0.04    0.04</time>
   <time name="diis">    0.15    0.15</time>
   <time name="orth">    0.00    0.00</time>
   <time name="total">    0.42    0.42</time>
   <energy>
    <i name="e_fr_energy">    -40.49383019 </i>
    <i name="e_wo_entrp">    -40.49475106 </i>
    <i name="e_0_energy">    -40.49383728 </i>
   </energy>
  </scstep>
  <scstep>
   <time name="diag">    0.04    0.04</time>
   <time name="diis">    0.15    0.15</time>
   <time name="orth">    0.00    0.00</time>
   <time name="total">    0.42    0.42</time>
   <energy>
    <i name="e_fr_energy">    -40.49381869 </i>
    <i name="e_wo_entrp">    -40.49457384 </i>
    <i name="e_0_energy">    -40.49382449 </i>
   </energy>
  </scstep>
  <scstep>
   <time name="diag">    0.04    0.04</time>
   <time name="diis">    0.15    0.15</time>
   <time name="orth">    0.00    0.00</time>
   <time name="total">    0.43    0.43</time>
   <energy>
    <i name="e_fr_energy">    -40.49388672 </i>
    <i name="e_wo_entrp">    -40.49453458 </i>
    <i name="e_0_energy">    -40.49389170 </i>
   </energy>
  </scstep>
  <scstep>
   <time name="diag">    0.04    0.04</time>
   <time name="diis">    0.15    0.15</time>
   <time name="orth">    0.00    0.00</time>
   <time name="total">    0.43    0.43</time>
   <energy>
    <i name="e_fr_energy">    -40.49452769 </i>
    <i name="e_wo_entrp">    -40.49452769 </i>
    <i name="e_0_energy">    -40.49452769 </i>
   </energy>
  </scstep>
  <scstep>
   <time name="diag">    0.04    0.04</time>
   <time name="diis">    0.11    0.11</time>
   <time name="orth">    0.00    0.00</time>
   <time name="total">    0.39    0.39</time>
   <energy>
    <i name="e_fr_energy">    -40.49454881 </i>
    <i name="e_wo_entrp">    -40.49454881 </i>
    <i name="e_0_energy">    -40.49454881 </i>
   </energy>
  </scstep>
  <scstep>
   <time name="diag">    0.04    0.04</time>
   <time name="diis">    0.11    0.11</time>
   <time name="orth">    0.00    0.00</time>
   <time name="total">    0.39    0.39</time>
   <energy>
    <i name="e_fr_energy">    -40.49455034 </i>
    <i name="e_wo_entrp">    -40.49455034 </i>
    <i name="e_0_energy">    -40.49455034 </i>
   </energy>
  </scstep>
  <scstep>
   <time name="diag">    0.04    0.04</time>
   <time name="diis">    0.11    0.11</time>
   <time name="orth">    0.00    0.00</time>
   <time name="total">    0.40    0.40</time>
   <energy>
    <i name="e_fr_energy">    -40.49455458 </i>
    <i name="e_wo_entrp">    -40.49455458 </i>
    <i name="e_0_energy">    -40.49455458 </i>
   </energy>
  </scstep>
  <scstep>
   <time name="diag">    0.04    0.04</time>
   <time name="diis">    0.11    0.11</time>
   <time name="orth">    0.00    0.00</time>
   <time name="total">    0.39    0.40</time>
   <energy>
    <i name="e_fr_energy">    -40.49455760 </i>
    <i name="e_wo_entrp">    -40.49455760 </i>
    <i name="e_0_energy">    -40.49455760 </i>
   </energy>
  </scstep>
  <scstep>
   <time name="diag">    0.04    0.04</time>
   <time name="diis">    0.11    0.11</time>
   <time name="orth">    0.00    0.00</time>
   <time name="total">    0.40    0.40</time>
   <energy>
    <i name="e_fr_energy">    -40.49456421 </i>
    <i name="e_wo_entrp">    -40.49456421 </i>
    <i name="e_0_energy">    -40.49456421 </i>
   </energy>
  </scstep>
  <scstep>
   <time name="diag">    0.04    0.04</time>
   <time name="diis">    0.13    0.13</time>
   <time name="orth">    0.00    0.00</time>
   <time name="total">    0.41    0.41</time>
   <energy>
    <i name="e_fr_energy">    -40.49457943 </i>
    <i name="e_wo_entrp">    -40.49457943 </i>
    <i name="e_0_energy">    -40.49457943 </i>
   </energy>
  </scstep>
  <scstep>
   <time name="diag">    0.04    0.04</time>
   <time name="diis">    0.11    0.11</time>
   <time name="orth">    0.00    0.00</time>
   <time name="total">    0.40    0.40</time>
   <energy>
    <i name="e_fr_energy">    -40.49458085 </i>
    <i name="e_wo_entrp">    -40.49458085 </i>
    <i name="e_0_energy">    -40.49458085 </i>
   </energy>
  </scstep>
  <scstep>
   <time name="diag">    0.04    0.04</time>
   <time name="diis">    0.10    0.10</time>
   <time name="orth">    0.00    0.00</time>
   <time name="total">    0.34    0.34</time>
   <energy>
    <i name="alphaZ">      0.09745814 </i>
    <i name="ewald">    520.31561254 </i>
    <i name="hartreedc">   -813.86208805 </i>
    <i name="XCdc">     44.15508677 </i>
    <i name="pawpsdc">    888.80034281 </i>
    <i name="pawaedc">   -890.30786394 </i>
    <i name="eentropy">      0.00000000 </i>
    <i name="bandstr">   -158.81937286 </i>
    <i name="atom">    369.12624373 </i>
    <i name="e_fr_energy">    -40.49458086 </i>
    <i name="e_wo_entrp">    -40.49458086 </i>
    <i name="e_0_energy">    -40.49458086 </i>
   </energy>
  </scstep>
  <structure>
   <crystal>
    <varray name="basis" >
     <v>      16.32993162      -8.16496581      -8.16496581 </v>
     <v>       0.00000000      14.14213562     -14.14213562 </v>
     <v>      11.54700538      11.54700538      11.54700538 </v>
    </varray>
    <i name="volume">   8000.00000000 </i>
    <varray name="rec_basis" >
     <v>       0.04082483      -0.02041241      -0.02041241 </v>
     <v>       0.00000000       0.03535534      -0.03535534 </v>
     <v>       0.02886751       0.02886751       0.02886751 </v>
    </varray>
   </crystal>
   <varray name="positions" >
    <v>       0.34998211       0.55335245       0.51330943 </v>
    <v>       0.40905863       0.55144439       0.56170947 </v>
    <v>       0.35334548       0.59634584       0.47915137 </v>
    <v>       0.34784190       0.50789346       0.48235289 </v>
    <v>       0.41178756       0.59736092       0.59193633 </v>
    <v>       0.45687415       0.54655296       0.53495343 </v>
    <v>       0.30209577       0.55726029       0.54010725 </v>
    <v>       0.40521447       0.50904564       0.59655785 </v>
   </varray>
  </structure>
  <varray name="forces" >
   <v>       0.00763715      -0.01609474      -0.00665818 </v>
   <v>      -0.00796833       0.01876821       0.01064594 </v>
   <v>       0.00113030      -0.00011658       0.00149933 </v>
   <v>      -0.00064257       0.00318958       0.00230195 </v>
   <v>      -0.00081334      -0.00110139       0.00571348 </v>
   <v>       0.00735107      -0.00908443      -0.00626130 </v>
   <v>      -0.00354804       0.01201787      -0.00158239 </v>
   <v>      -0.00314625      -0.00757852      -0.00565882 </v>
  </varray>
  <varray name="stress" >
   <v>      -0.12581931       0.00049612      -0.00799451 </v>
   <v>       0.00049612      -0.10748655       0.00366856 </v>
   <v>      -0.00799451       0.00366856      -0.13974998 </v>
  </varray>
  <energy>
   <i name="e_fr_energy">    -40.52097295 </i>
   <i name="e_wo_entrp">    -40.52097295 </i>
   <i name="e_0_energy">      0.00000000 </i>
  </energy>
  <time name="totalsc">    9.87    9.94</time>
 </calculation>
 <calculation>
  <scstep>
   <time name="dav">    0.20    0.20</time>
   <time name="total">    0.43    0.44</time>
   <energy>
    <i name="alphaZ">      0.09745814 </i>
    <i name="ewald">    520.32001267 </i>
    <i name="hartreedc">   -813.86918344 </i>
    <i name="XCdc">     44.15499796 </i>
    <i name="pawpsdc">    888.80031180 </i>
    <i name="pawaedc">   -890.30783294 </i>
    <i name="eentropy">      0.00000000 </i>
    <i name="bandstr">   -158.81659734 </i>
    <i name="atom">    369.12624373 </i>
    <i name="e_fr_energy">    -40.49458942 </i>
    <i name="e_wo_entrp">    -40.49458942 </i>
    <i name="e_0_energy">    -40.49458942 </i>
   </energy>
  </scstep>
  <scstep>
   <time name="diag">    0.04    0.04</time>
   <time name="diis">    0.15    0.15</time>
   <time name="orth">    0.00    0.00</time>
   <time name="total">    0.44    0.46</time>
   <energy>
    <i name="e_fr_energy">    -40.49391331 </i>
    <i name="e_wo_entrp">    -40.49464110 </i>
    <i name="e_0_energy">    -40.49391891 </i>
   </energy>
  </scstep>
  <scstep>
   <time name="diag">    1.11    1.11</time>
   <time name="diis">    0.15    0.15</time>
   <time name="orth">    0.00    0.00</time>
   <time name="total">    3.28    3.31</time>
   <energy>
    <i name="e_fr_energy">    -40.49488247 </i>
    <i name="e_wo_entrp">    -40.49488247 </i>
    <i name="e_0_energy">    -40.49488247 </i>
   </energy>
  </scstep>
  <scstep>
   <time name="diag">    0.04    0.04</time>
   <time name="diis">    0.15    0.15</time>
   <time name="orth">    0.00    0.00</time>
   <time name="total">    0.42    0.44</time>
   <energy>
    <i name="e_fr_energy">    -40.49347462 </i>
    <i name="e_wo_entrp">    -40.49474412 </i>
    <i name="e_0_energy">    -40.49348438 </i>
   </energy>
  </scstep>
  <scstep>
   <time name="diag">    0.03    0.04</time>
   <time name="diis">    0.15    0.15</time>
   <time name="orth">    0.00    0.00</time>
   <time name="total">    0.42    0.44</time>
   <energy>
    <i name="e_fr_energy">    -40.49440556 </i>
    <i name="e_wo_entrp">    -40.49440556 </i>
    <i name="e_0_energy">    -40.49440556 </i>
   </energy>
  </scstep>
  <scstep>
   <time name="diag">    0.04    0.04</time>
   <time name="diis">    0.15    0.15</time>
   <time name="orth">    0.00    0.00</time>
   <time name="total">    0.43    0.45</time>
   <energy>
    <i name="e_fr_energy">    -40.49458711 </i>
    <i name="e_wo_entrp">    -40.49458711 </i>
    <i name="e_0_energy">    -40.49458711 </i>
   </energy>
  </scstep>
  <scstep>
   <time name="diag">    0.04    0.04</time>
   <time name="diis">    0.15    0.15</time>
   <time name="orth">    0.00    0.00</time>
   <time name="total">    0.42    0.44</time>
   <energy>
    <i name="e_fr_energy">    -40.49393504 </i>
    <i name="e_wo_entrp">    -40.49461762 </i>
    <i name="e_0_energy">    -40.49394029 </i>
   </energy>
  </scstep>
  <scstep>
   <time name="diag">    0.04    0.04</time>
   <time name="diis">    0.15    0.15</time>
   <time name="orth">    0.00    0.00</time>
   <time name="total">    0.42    0.44</time>
   <energy>
    <i name="e_fr_energy">    -40.49389377 </i>
    <i name="e_wo_entrp">    -40.49466728 </i>
    <i name="e_0_energy">    -40.49389972 </i>
   </energy>
  </scstep>
  <scstep>
   <time name="diag">    0.04    0.04</time>
   <time name="diis">    0.14    0.14</time>
   <time name="orth">    0.00    0.00</time>
   <time name="total">    0.40    0.43</time>
   <energy>
    <i name="e_fr_energy">    -40.49390330 </i>
    <i name="e_wo_entrp">    -40.49457620 </i>
    <i name="e_0_energy">    -40.49390847 </i>
   </energy>
  </scstep>
  <scstep>
   <time name="diag">    0.03    0.04</time>
   <time name="diis">    0.15    0.15</time>
   <time name="orth">    0.00    0.00</time>
   <time name="total">    0.42    0.44</time>
   <energy>
    <i name="e_fr_energy">    -40.49453212 </i>
    <i name="e_wo_entrp">    -40.49453212 </i>
    <i name="e_0_energy">    -40.49453212 </i>
   </energy>
  </scstep>
  <scstep>
   <time name="diag">    0.03    0.04</time>
   <time name="diis">    0.11    0.11</time>
   <time name="orth">    0.00    0.00</time>
   <time name="total">    0.38    0.40</time>
   <energy>
    <i name="e_fr_energy">    -40.49455169 </i>
    <i name="e_wo_entrp">    -40.49455169 </i>
    <i name="e_0_energy">    -40.49455169 </i>
   </energy>
  </scstep>
  <scstep>
   <time name="diag">    0.04    0.04</time>
   <time name="diis">    0.11    0.11</time>
   <time name="orth">    0.00    0.00</time>
   <time name="total">    0.38    0.40</time>
   <energy>
    <i name="e_fr_energy">    -40.49456465 </i>
    <i name="e_wo_entrp">    -40.49456465 </i>
    <i name="e_0_energy">    -40.49456465 </i>
   </energy>
  </scstep>
  <scstep>
   <time name="diag">    0.04    0.04</time>
   <time name="diis">    0.14    0.14</time>
   <time name="orth">    0.00    0.00</time>
   <time name="total">    0.41    0.44</time>
   <energy>
    <i name="e_fr_energy">    -40.49458175 </i>
    <i name="e_wo_entrp">    -40.49458175 </i>
    <i name="e_0_energy">    -40.49458175 </i>
   </energy>
  </scstep>
  <scstep>
   <time name="diag">    0.04    0.04</time>
   <time name="diis">    0.11    0.11</time>
   <time name="orth">    0.00    0.00</time>
   <time name="total">    0.39    0.41</time>
   <energy>
    <i name="e_fr_energy">    -40.49457685 </i>
    <i name="e_wo_entrp">    -40.49457685 </i>
    <i name="e_0_energy">    -40.49457685 </i>
   </energy>
  </scstep>
  <scstep>
   <time name="diag">    0.03    0.04</time>
   <time name="diis">    0.11    0.11</time>
   <time name="orth">    0.00    0.00</time>
   <time name="total">    0.39    0.41</time>
   <energy>
    <i name="e_fr_energy">    -40.49458777 </i>
    <i name="e_wo_entrp">    -40.49458777 </i>
    <i name="e_0_energy">    -40.49458777 </i>
   </energy>
  </scstep>
  <scstep>
   <time name="diag">    0.03    0.04</time>
   <time name="diis">    0.11    0.11</time>
   <time name="orth">    0.00    0.00</time>
   <time name="total">    0.39    0.41</time>
   <energy>
    <i name="e_fr_energy">    -40.49458414 </i>
    <i name="e_wo_entrp">    -40.49458414 </i>
    <i name="e_0_energy">    -40.49458414 </i>
   </energy>
  </scstep>
  <scstep>
   <time name="diag">    0.04    0.04</time>
   <time name="diis">    0.10    0.10</time>
   <time name="orth">    0.00    0.00</time>
   <time name="total">    0.38    0.40</time>
   <energy>
    <i name="e_fr_energy">    -40.49458219 </i>
    <i name="e_wo_entrp">    -40.49458219 </i>
    <i name="e_0_energy">    -40.49458219 </i>
   </energy>
  </scstep>
  <scstep>
   <time name="diag">    0.04    0.04</time>
   <time name="diis">    0.09    0.09</time>
   <time name="orth">    0.00    0.00</time>
   <time name="total">    0.33    0.35</time>
   <energy>
    <i name="alphaZ">      0.09745814 </i>
    <i name="ewald">    520.32001267 </i>
    <i name="hartreedc">   -813.86679916 </i>
    <i name="XCdc">     44.15478318 </i>
    <i name="pawpsdc">    888.79049251 </i>
    <i name="pawaedc">   -890.29798419 </i>
    <i name="eentropy">      0.00000000 </i>
    <i name="bandstr">   -158.81878874 </i>
    <i name="atom">    369.12624373 </i>
    <i name="e_fr_energy">    -40.49458185 </i>
    <i name="e_wo_entrp">    -40.49458185 </i>
    <i name="e_0_energy">    -40.49458185 </i>
   </energy>
  </scstep>
  <structure>
   <crystal>
    <varray name="basis" >
     <v>      16.32993162      -8.16496581      -8.16496581 </v>
     <v>       0.00000000      14.14213562     -14.14213562 </v>
     <v>      11.54700538      11.54700538      11.54700538 </v>
    </varray>
    <i name="volume">   8000.00000000 </i>
    <varray name="rec_basis" >
     <v>       0.04082483      -0.02041241      -0.02041241 </v>
     <v>       0.00000000       0.03535534      -0.03535534 </v>
     <v>       0.02886751       0.02886751       0.02886751 </v>
    </varray>
   </crystal>
   <varray name="positions" >
    <v>       0.34998904       0.55334481       0.51330739 </v>
    <v>       0.40904967       0.55145126       0.56171398 </v>
    <v>       0.35334596       0.59634729       0.47914981 </v>
    <v>       0.34784066       0.50789557       0.48235497 </v>
    <v>       0.41178639       0.59735677       0.59193644 </v>
    <v>       0.45688021       0.54655227       0.53495074 </v>
    <v>       0.30209266       0.55726446       0.54010930 </v>
    <v>       0.40521550       0.50904352       0.59655539 </v>
   </varray>
  </structure>
  <varray name="forces" >
   <v>       0.00134295      -0.00115976      -0.00810901 </v>
   <v>      -0.00130373       0.00103387       0.00769090 </v>
   <v>       0.00208499      -0.00135104       0.00425553 </v>
   <v>      -0.00159473      -0.00211032       0.00396886 </v>
   <v>       0.00041507       0.00489108       0.00394125 </v>
   <v>       0.00324187      -0.00126177      -0.00068403 </v>
   <v>      -0.00100176       0.00657766      -0.00525300 </v>
   <v>      -0.00318466      -0.00661972      -0.00581049 </v>
  </varray>
  <varray name="stress" >
   <v>      -0.12524861       0.00218903      -0.00710586 </v>
   <v>       0.00218903      -0.10801878       0.00115483 </v>
   <v>      -0.00710586       0.00115483      -0.14060053 </v>
  </varray>
  <energy>
   <i name="e_fr_energy">    -40.52097293 </i>
   <i name="e_wo_entrp">    -40.52097293 </i>
   <i name="e_0_energy">      0.00000000 </i>
  </energy>
  <time name="totalsc">   10.91   11.36</time>
  <eigenvalues>
   <array>
    <dimension dim="1">band</dimension>
    <dimension dim="2">kpoint</dimension>
    <dimension dim="3">spin</dimension>
    <field>eigene</field>
    <field>occ</field>
    <set>
     <set comment="spin 1">
      <set comment="kpoint 1">
       <r>  -18.4910    1.0000 </r>
       <r>  -14.9737    1.0000 </r>
       <r>  -10.4658    1.0000 </r>
       <r>  -10.4475    1.0000 </r>
       <r>   -8.8706    1.0000 </r>
       <r>   -8.0907    1.0000 </r>
       <r>   -8.0701    1.0000 </r>
       <r>   -0.4423    0.0000 </r>
       <r>    0.0778    0.0000 </r>
       <r>    0.0864    0.0000 </r>
       <r>    0.2263    0.0000 </r>
       <r>    0.2323    0.0000 </r>
      </set>
     </set>
    </set>
   </array>
  </eigenvalues>
  <separator name="orbital magnetization" >
   <v name="MAGDIPOLOUT">      0.00000000      0.00000000      0.00000000</v>
  </separator>
 </calculation>
 <structure name="finalpos" >
  <crystal>
   <varray name="basis" >
    <v>      16.32993162      -8.16496581      -8.16496581 </v>
    <v>       0.00000000      14.14213562     -14.14213562 </v>
    <v>      11.54700538      11.54700538      11.54700538 </v>
   </varray>
   <i name="volume">   8000.00000000 </i>
   <varray name="rec_basis" >
    <v>       0.04082483      -0.02041241      -0.02041241 </v>
    <v>       0.00000000       0.03535534      -0.03535534 </v>
    <v>       0.02886751       0.02886751       0.02886751 </v>
   </varray>
  </crystal>
  <varray name="positions" >
   <v>       0.34998904       0.55334481       0.51330739 </v>
   <v>       0.40904967       0.55145126       0.56171398 </v>
   <v>       0.35334596       0.59634729       0.47914981 </v>
   <v>       0.34784066       0.50789557       0.48235497 </v>
   <v>       0.41178639       0.59735677       0.59193644 </v>
   <v>       0.45688021       0.54655227       0.53495074 </v>
   <v>       0.30209266       0.55726446       0.54010930 </v>
   <v>       0.40521550       0.50904352       0.59655539 </v>
  </varray>
  <varray name="selective"  type="logical" >
   <v type="logical" >  T  T  T </v>
   <v type="logical" >  T  T  T </v>
   <v type="logical" >  T  T  T </v>
   <v type="logical" >  T  T  T </v>
   <v type="logical" >  T  T  T </v>
   <v type="logical" >  T  T  T </v>
   <v type="logical" >  T  T  T </v>
   <v type="logical" >  T  T  T </v>
  </varray>
  <nose>
   <v>      -3.00000000       0.00000000       0.00010000       0.00010000 </v>
  </nose>
 </structure>
</modeling>
