unknown system                          
           1
    16.329932   -8.164966   -8.164966
     0.000000   14.142136  -14.142136
    11.547005   11.547005   11.547005
   C    H 
   2   6
Direct configuration=     1
   0.34996834  0.55335306  0.51333331
   0.40906104  0.55143780  0.56169911
   0.35333718  0.59635762  0.47917263
   0.34789191  0.50794774  0.48229575
   0.41182808  0.59736384  0.59191009
   0.45685616  0.54649952  0.53491363
   0.30206979  0.55719024  0.54011757
   0.40518758  0.50910612  0.59663593
Direct configuration=     2
   0.34987802  0.55345963  0.51344850
   0.40914430  0.55132505  0.56159199
   0.35336774  0.59632041  0.47913105
   0.34788588  0.50791822  0.48225148
   0.41182008  0.59738420  0.59196446
   0.45682200  0.54654422  0.53492470
   0.30212022  0.55716914  0.54011013
   0.40516183  0.50913509  0.59665571
Direct configuration=     3
   0.34994835  0.55337906  0.51336036
   0.40907972  0.55141092  0.56167346
   0.35336096  0.59632930  0.47913826
   0.34787833  0.50796141  0.48228682
   0.41182340  0.59733833  0.59193332
   0.45686415  0.54653321  0.53489706
   0.30207578  0.55718284  0.54014093
   0.40516940  0.50912088  0.59664780
Direct configuration=     4
   0.34995848  0.55336322  0.51334443
   0.40907237  0.55142829  0.56168608
   0.35335253  0.59633752  0.47914672
   0.34787335  0.50795175  0.48229636
   0.41182096  0.59734366  0.59193059
   0.45686213  0.54652768  0.53490513
   0.30208023  0.55719699  0.54013602
   0.40518002  0.50910686  0.59663268
Direct configuration=     5
   0.34999440  0.55334741  0.51331377
   0.40903664  0.55144565  0.56171738
   0.35333095  0.59634963  0.47916628
   0.34786019  0.50791442  0.48231926
   0.41180927  0.59736484  0.59192932
   0.45687236  0.54651884  0.53492255
   0.30208566  0.55723677  0.54012472
   0.40521060  0.50907839  0.59658475
Direct configuration=     6
   0.34998308  0.55335111  0.51331047
   0.40905438  0.55144415  0.56171251
   0.35333655  0.59634884  0.47916084
   0.34785491  0.50791611  0.48232925
   0.41180835  0.59736039  0.59192643
   0.45686634  0.54653119  0.53492985
   0.30208914  0.55723359  0.54012221
   0.40520732  0.50907057  0.59658646
Direct configuration=     7
   0.34998810  0.55334245  0.51330117
   0.40905080  0.55145476  0.56171999
   0.35334096  0.59635059  0.47915663
   0.34785123  0.50791078  0.48234713
   0.41179650  0.59735520  0.59192334
   0.45687722  0.54654027  0.53494249
   0.30208575  0.55724561  0.54011391
   0.40520952  0.50905629  0.59657336
Direct configuration=     8
   0.34999128  0.55335096  0.51330548
   0.40904579  0.55144456  0.56171786
   0.35334170  0.59634927  0.47915544
   0.34784886  0.50790655  0.48234541
   0.41179828  0.59735919  0.59192586
   0.45687805  0.54654360  0.53494099
   0.30208651  0.55724360  0.54011464
   0.40520959  0.50905821  0.59657233
Direct configuration=     9
   0.34999242  0.55334483  0.51331292
   0.40904268  0.55144948  0.56171286
   0.35334386  0.59635250  0.47914809
   0.34784506  0.50790008  0.48235207
   0.41179245  0.59735898  0.59192845
   0.45688138  0.54655027  0.53494628
   0.30208989  0.55725085  0.54011032
   0.40521232  0.50904894  0.59656703
Direct configuration=    10
   0.34998211  0.55335245  0.51330943
   0.40905863  0.55144439  0.56170947
   0.35334548  0.59634584  0.47915137
   0.34784190  0.50789346  0.48235289
   0.41178756  0.59736092  0.59193633
   0.45687415  0.54655296  0.53495343
   0.30209577  0.55726029  0.54010725
   0.40521447  0.50904564  0.59655785
Direct configuration=    11
   0.34998904  0.55334481  0.51330739
   0.40904967  0.55145126  0.56171398
   0.35334596  0.59634729  0.47914981
   0.34784066  0.50789557  0.48235497
   0.41178639  0.59735677  0.59193644
   0.45688021  0.54655227  0.53495074
   0.30209266  0.55726446  0.54010930
   0.40521550  0.50904352  0.59655539
