 running on   20 total cores
 distrk:  each k-point on   20 cores,    1 groups
 distr:  one band on   20 cores,    1 groups
 using from now: INCAR     
 vasp.5.3.2 13Sep12 (build Oct  1 2014 14:03:07) gamma-only                     
  
 POSCAR found type information on POSCAR  O  C  H 
 POSCAR found :  3 types and      13 ions

 ----------------------------------------------------------------------------- 
|                                                                             |
|           W    W    AA    RRRRR   N    N  II  N    N   GGGG   !!!           |
|           W    W   A  A   R    R  NN   N  II  NN   N  G    G  !!!           |
|           W    W  A    A  R    R  N N  N  II  N N  N  G       !!!           |
|           W WW W  AAAAAA  RRRRR   N  N N  II  N  N N  G  GGG   !            |
|           WW  WW  A    A  R   R   N   NN  II  N   NN  G    G                |
|           W    W  A    A  R    R  N    N  II  N    N   GGGG   !!!           |
|                                                                             |
|      For optimal performance we recommend that you set                      |
|        NPAR = 4 - approx SQRT( number of cores)                             |
|      (number of cores/NPAR must be integer)                                 |
|      This setting will greatly improve the performance of VASP for DFT.     |
|      The default NPAR=number of cores might be grossly inefficient          |
|      on modern multi-core architectures or massively parallel machines.     |
|      Do your own testing.                                                   |
|      Unfortunately you need to use the default for hybrid, GW and RPA       |
|      calculations.                                                          |
|                                                                             |
 ----------------------------------------------------------------------------- 

 LDA part: xc-table for Pade appr. of Perdew
 POSCAR found type information on POSCAR  O  C  H 
 POSCAR found :  3 types and      13 ions
 POSCAR, INCAR and KPOINTS ok, starting setup
 WARNING: small aliasing (wrap around) errors must be expected
 FFT: planning ...
 WAVECAR not read
 entering main loop
       N       E                     dE             d eps       ncg     rms          rms(c)
DAV:   1     0.214683901965E+03    0.21468E+03   -0.58783E+03    60   0.532E+02
DAV:   2     0.654485976389E+02   -0.14924E+03   -0.13793E+03    80   0.106E+02
DAV:   3    -0.515316627610E+02   -0.11698E+03   -0.11599E+03    64   0.777E+01
DAV:   4    -0.781081434698E+02   -0.26576E+02   -0.26483E+02    56   0.524E+01
DAV:   5    -0.789649006443E+02   -0.85676E+00   -0.85668E+00    64   0.123E+01
DAV:   6    -0.789698391188E+02   -0.49385E-02   -0.49378E-02    58   0.102E+00
DAV:   7    -0.789699233822E+02   -0.84263E-04   -0.84255E-04    72   0.133E-01
DAV:   8    -0.789699262663E+02   -0.28841E-05   -0.28834E-05    64   0.202E-02
DAV:   9    -0.789705062227E+02   -0.57996E-03   -0.16657E-06    72   0.480E-03
DAV:  10    -0.789705062309E+02   -0.81991E-08   -0.79432E-08    48   0.116E-03    0.138E+01
RMM:  11    -0.736435333484E+02    0.53270E+01   -0.82764E+00    44   0.128E+01    0.749E+00
RMM:  12    -0.722016216632E+02    0.14419E+01   -0.46839E+00    44   0.901E+00    0.295E+00
RMM:  13    -0.720020397696E+02    0.19958E+00   -0.33387E-01    44   0.281E+00    0.478E-01
RMM:  14    -0.719827946920E+02    0.19245E-01   -0.41923E-02    46   0.850E-01    0.267E-01
RMM:  15    -0.719801989557E+02    0.25957E-02   -0.15757E-02    44   0.526E-01    0.172E-01
RMM:  16    -0.719783678893E+02    0.18311E-02   -0.31093E-03    44   0.236E-01    0.911E-02
RMM:  17    -0.719835456548E+02   -0.51778E-02   -0.67893E-03    44   0.320E-01    0.618E-02
RMM:  18    -0.719893436295E+02   -0.57980E-02   -0.18641E-03    44   0.187E-01    0.475E-02
RMM:  19    -0.719954906552E+02   -0.61470E-02   -0.94355E-04    44   0.118E-01    0.220E-02
RMM:  20    -0.719996220217E+02   -0.41314E-02   -0.13957E-03    45   0.139E-01    0.360E-02
RMM:  21    -0.719999507646E+02   -0.32874E-03   -0.12084E-04    44   0.454E-02    0.200E-02
RMM:  22    -0.720002383703E+02   -0.28761E-03   -0.30001E-04    45   0.662E-02    0.138E-02
RMM:  23    -0.720004035689E+02   -0.16520E-03   -0.25956E-05    44   0.211E-02    0.834E-03
RMM:  24    -0.720012638725E+02   -0.86030E-03   -0.38399E-05    44   0.250E-02    0.416E-03
RMM:  25    -0.720007197227E+02    0.54415E-03   -0.14856E-06    30   0.559E-03    0.300E-03
RMM:  26    -0.720007662452E+02   -0.46523E-04   -0.41501E-06    37   0.861E-03    0.134E-03
RMM:  27    -0.720013539663E+02   -0.58772E-03   -0.41081E-07    29   0.326E-03    0.260E-04
RMM:  28    -0.720007808078E+02    0.57316E-03   -0.17608E-07    26   0.211E-03    0.540E-04
RMM:  29    -0.720013632651E+02   -0.58246E-03   -0.41102E-08    19   0.138E-03    0.115E-04
RMM:  30    -0.720007846703E+02    0.57859E-03   -0.13505E-07    26   0.180E-03    0.433E-04
RMM:  31    -0.720007850392E+02   -0.36886E-06    0.00000E+00    14   0.904E-04
   1 F= -.72109523E+02 E0= -.72109717E+02  d E =-.721095E+02
 BRION: g(F)=  0.180E-04 g(S)=  0.000E+00
 reached required accuracy - stopping structural energy minimisation
