       N       E                     dE             d eps       ncg     rms          rms(c)
DAV:   1    -0.240157659817E+01   -0.24016E+01   -0.27390E+02    60   0.187E+01
DAV:   2    -0.735595279753E+01   -0.49544E+01   -0.49544E+01    40   0.101E+01
DAV:   3    -0.743556386436E+01   -0.79611E-01   -0.79611E-01    60   0.168E+00
DAV:   4    -0.743560453030E+01   -0.40666E-04   -0.40667E-04    40   0.363E-02
DAV:   5    -0.743560473487E+01   -0.20456E-06   -0.20553E-06    80   0.356E-03
DAV:   6    -0.743560473730E+01   -0.24378E-08    0.14531E-11    40   0.156E-05
DAV:   7    -0.743560473515E+01    0.21547E-08    0.46185E-11    80   0.944E-07
DAV:   8    -0.743560473548E+01   -0.32829E-09    0.40288E-11    40   0.644E-09
DAV:   9    -0.743560473658E+01   -0.11082E-08    0.47535E-11    20   0.420E-10
DAV:  10    -0.743560473557E+01    0.10189E-08    0.49845E-11    20   0.161E-10    0.445E+00
RMM:  11    -0.699494276037E+01    0.44066E+00   -0.16778E-01    40   0.504E-01    0.245E+00
RMM:  12    -0.675371531806E+01    0.24123E+00   -0.46049E-01    40   0.831E-01    0.296E-01
RMM:  13    -0.675754880895E+01   -0.38335E-02   -0.45776E-03    40   0.861E-02    0.234E-01
RMM:  14    -0.675459660921E+01    0.29522E-02   -0.35969E-03    40   0.709E-02    0.380E-02
RMM:  15    -0.675596510460E+01   -0.13685E-02   -0.13328E-03    40   0.392E-02    0.263E-02
RMM:  16    -0.675648605398E+01   -0.52095E-03   -0.17093E-05    40   0.573E-03    0.126E-02
RMM:  17    -0.675830630462E+01   -0.18203E-02   -0.36724E-04    40   0.226E-02    0.889E-03
RMM:  18    -0.675854520849E+01   -0.23890E-03   -0.18640E-05    40   0.476E-03    0.850E-03
RMM:  19    -0.675869079029E+01   -0.14558E-03   -0.13122E-05    40   0.416E-03    0.294E-03
RMM:  20    -0.675874563268E+01   -0.54842E-04   -0.14307E-06    40   0.142E-03    0.782E-04
RMM:  21    -0.675876388181E+01   -0.18249E-04   -0.18993E-07    39   0.638E-04    0.507E-04
RMM:  22    -0.675877674928E+01   -0.12867E-04   -0.81933E-08    39   0.344E-04    0.400E-04
RMM:  23    -0.675877998241E+01   -0.32331E-05   -0.62889E-08    39   0.290E-04    0.411E-04
RMM:  24    -0.675878192685E+01   -0.19444E-05   -0.19582E-08    39   0.161E-04    0.385E-05
RMM:  25    -0.675878202894E+01   -0.10209E-06    0.00000E+00    38   0.445E-05
   1 F= -.67587828E+01 E0= -.67589761E+01  d E =-.675878E+01
