unknown system                          
           1
    16.329932   -8.164966   -8.164966
     0.000000   14.142136  -14.142136
    11.547005   11.547005   11.547005
   H 
   2
Direct configuration=     1
   0.41550142  0.55908684  0.60273360
   0.41065358  0.52185383  0.60278278
