 vasp.5.3.2 13Sep12 (build Oct  1 2014 13:46:58) complex                        
  
 executed on             LinuxIFC date 2015.11.22  18:50:12
 running on   20 total cores
 distrk:  each k-point on   20 cores,    1 groups
 distr:  one band on NCORES_PER_BAND=  20 cores,    1 groups


--------------------------------------------------------------------------------------------------------


 INCAR:
 POTCAR:    PAW_PBE C 08Apr2002                   
 POTCAR:    PAW_PBE H 15Jun2001                   

 ----------------------------------------------------------------------------- 
|                                                                             |
|           W    W    AA    RRRRR   N    N  II  N    N   GGGG   !!!           |
|           W    W   A  A   R    R  NN   N  II  NN   N  G    G  !!!           |
|           W    W  A    A  R    R  N N  N  II  N N  N  G       !!!           |
|           W WW W  AAAAAA  RRRRR   N  N N  II  N  N N  G  GGG   !            |
|           WW  WW  A    A  R   R   N   NN  II  N   NN  G    G                |
|           W    W  A    A  R    R  N    N  II  N    N   GGGG   !!!           |
|                                                                             |
|      For optimal performance we recommend that you set                      |
|        NPAR = 4 - approx SQRT( number of cores)                             |
|      (number of cores/NPAR must be integer)                                 |
|      This setting will greatly improve the performance of VASP for DFT.     |
|      The default NPAR=number of cores might be grossly inefficient          |
|      on modern multi-core architectures or massively parallel machines.     |
|      Do your own testing.                                                   |
|      Unfortunately you need to use the default for hybrid, GW and RPA       |
|      calculations.                                                          |
|                                                                             |
 ----------------------------------------------------------------------------- 

 POTCAR:    PAW_PBE C 08Apr2002                   
  local pseudopotential read in
  partial core-charges read in
  partial kinetic energy density read in
  atomic valenz-charges read in
  non local Contribution for L=           0  read in
    real space projection operators read in
  non local Contribution for L=           0  read in
    real space projection operators read in
  non local Contribution for L=           1  read in
    real space projection operators read in
  non local Contribution for L=           1  read in
    real space projection operators read in
    PAW grid and wavefunctions read in
 
   number of l-projection  operators is LMAX  =           4
   number of lm-projection operators is LMMAX =           8
 
 POTCAR:    PAW_PBE H 15Jun2001                   
  local pseudopotential read in
  atomic valenz-charges read in
  non local Contribution for L=           0  read in
    real space projection operators read in
  non local Contribution for L=           0  read in
    real space projection operators read in
  non local Contribution for L=           1  read in
    real space projection operators read in
    PAW grid and wavefunctions read in
 
   number of l-projection  operators is LMAX  =           3
   number of lm-projection operators is LMMAX =           5
 

 ----------------------------------------------------------------------------- 
|                                                                             |
|  ADVICE TO THIS USER RUNNING 'VASP/VAMP'   (HEAR YOUR MASTER'S VOICE ...):  |
|                                                                             |
|      You have a (more or less) 'small supercell' and for smaller cells      |
|      it is recommended  to use the reciprocal-space projection scheme!      |
|      The real space optimization is not  efficient for small cells and it   |
|      is also less accurate ...                                              |
|      Therefore set LREAL=.FALSE. in the  INCAR file                         |
|                                                                             |
 ----------------------------------------------------------------------------- 

 Optimization of the real space projectors (new method)

 maximal supplied QI-value         = 25.13
 optimisation between [QCUT,QGAM] = [ 10.05, 20.36] = [ 28.30,116.06] Ry 
 Optimized for a Real-space Cutoff    1.51 Angstroem

   l    n(q)    QCUT    max X(q) W(low)/X(q) W(high)/X(q)  e(spline) 
   0      9    10.053   115.676    0.19E-03    0.21E-03    0.38E-06
   0      9    10.053    87.132    0.19E-03    0.21E-03    0.38E-06
   1      9    10.053     4.429    0.87E-04    0.11E-03    0.39E-06
   1      9    10.053     2.733    0.59E-04    0.62E-04    0.43E-06
 Optimization of the real space projectors (new method)

 maximal supplied QI-value         = 34.20
 optimisation between [QCUT,QGAM] = [  9.92, 20.18] = [ 27.55,114.04] Ry 
 Optimized for a Real-space Cutoff    1.34 Angstroem

   l    n(q)    QCUT    max X(q) W(low)/X(q) W(high)/X(q)  e(spline) 
   0      8     9.919    19.460    0.16E-03    0.20E-03    0.36E-06
   0      8     9.919    12.209    0.16E-03    0.20E-03    0.35E-06
   1      8     9.919     4.655    0.19E-03    0.46E-03    0.40E-06
  PAW_PBE C 08Apr2002                   :
 energy of atom  1       EATOM= -147.1560
 kinetic energy error for atom=    0.0288 (will be added to EATOM!!)
  PAW_PBE H 15Jun2001                   :
 energy of atom  2       EATOM=  -12.4884
 kinetic energy error for atom=    0.0098 (will be added to EATOM!!)
 
 
 POSCAR: C  H                                    
  positions in direct lattice
  velocities in cartesian coordinates
 exchange correlation table for  LEXCH =        8
   RHO(1)=    0.500       N(1)  =     2000
   RHO(2)=  100.500       N(2)  =     4000

 VTST: version 3.0, (09/19/12)

 CHAIN: initializing optimizer
 
 OPT: Using VASP QUASI-newton optimizer
 CHAIN: Read ICHAIN            0
 
 POSCAR: C  H                                    
  positions in direct lattice
  velocities in cartesian coordinates
 


--------------------------------------------------------------------------------------------------------


 ion  position               nearest neighbor table
   1  0.350  0.548  0.520-   2 1.10   4 1.10   3 1.10   5 1.10
   2  0.341  0.602  0.520-   1 1.10
   3  0.392  0.537  0.487-   1 1.10
   4  0.305  0.523  0.501-   1 1.10
   5  0.361  0.531  0.570-   1 1.10
 

IMPORTANT INFORMATION: All symmetrisations will be switched off!
NOSYMM: (Re-)initialisation of all symmetry stuff for point group C_1.

 
 
 KPOINTS: K-Point Grid. Created by Vassili Vorotni

Automatic generation of k-mesh.
Space group operators:
 irot       det(A)        alpha          n_x          n_y          n_z        tau_x        tau_y        tau_z
    1     1.000000     0.000001     1.000000     0.000000     0.000000     0.000000     0.000000     0.000000
 
 Subroutine IBZKPT returns following result:
 ===========================================
 
 Found      1 irreducible k-points:
 
 Following reciprocal coordinates:
            Coordinates               Weight
  0.000000  0.000000  0.000000      1.000000
 
 Following cartesian coordinates:
            Coordinates               Weight
  0.000000  0.000000  0.000000      1.000000
 


--------------------------------------------------------------------------------------------------------




 Dimension of arrays:
   k-points           NKPTS =      1   k-points in BZ     NKDIM =      1   number of bands    NBANDS=      8
   number of dos      NEDOS =    301   number of ions     NIONS =      5
   non local maximal  LDIM  =      4   non local SUM 2l+1 LMDIM =      8
   total plane-waves  NPLWV = 941192
   max r-space proj   IRMAX =   1741   max aug-charges    IRDMAX=   1074
   dimension x,y,z NGX =    98 NGY =   98 NGZ =   98
   dimension x,y,z NGXF=   168 NGYF=  168 NGZF=  168
   support grid    NGXF=   168 NGYF=  168 NGZF=  168
   ions per type =               1   4
 NGX,Y,Z   is equivalent  to a cutoff of   8.15,  8.15,  8.15 a.u.
 NGXF,Y,Z  is equivalent  to a cutoff of  13.96, 13.96, 13.96 a.u.


 I would recommend the setting:
   dimension x,y,z NGX =    98 NGY =   98 NGZ =   98
 SYSTEM =  unknown system                          
 POSCAR =  C  H                                    

 Startparameter for this run:
   NWRITE =      1    write-flag & timer
   PREC   = med       normal or accurate (medium, high low for compatibility)
   ISTART =      0    job   : 0-new  1-cont  2-samecut
   ICHARG =      2    charge: 1-file 2-atom 10-const
   ISPIN  =      1    spin polarized calculation?
   LNONCOLLINEAR =      F non collinear calculations
   LSORBIT =      F    spin-orbit coupling
   INIWAV =      1    electr: 0-lowe 1-rand  2-diag
   LASPH  =      F    aspherical Exc in radial PAW
   METAGGA=      F    non-selfconsistent MetaGGA calc.

 Electronic Relaxation 1
   ENCUT  =  400.0 eV  29.40 Ry    5.42 a.u.  32.61 32.61 32.61*2*pi/ulx,y,z
   ENINI  =  400.0     initial cutoff
   ENAUG  =  644.9 eV  augmentation charge cutoff
   NELM   =    400;   NELMIN=  2; NELMDL=-10     # of ELM steps 
   EDIFF  = 0.1E-05   stopping-criterion for ELM
   LREAL  =      T    real-space projection
   NLSPLINE    = F    spline interpolate recip. space projectors
   LCOMPAT=      F    compatible to vasp.4.4
   GGA_COMPAT  = T    GGA compatible to vasp.4.4-vasp.4.6
   LMAXPAW     = -100 max onsite density
   LMAXMIX     =    2 max onsite mixed and CHGCAR
   VOSKOWN=      1    Vosko Wilk Nusair interpolation
   ROPT   =   -0.00020  -0.00020
 Ionic relaxation
   EDIFFG = -.1E-01   stopping-criterion for IOM
   NSW    =    200    number of steps for IOM
   NBLOCK =      1;   KBLOCK =    200    inner block; outer block 
   IBRION =      1    ionic relax: 0-MD 1-quasi-New 2-CG
   NFREE  =      2    steps in history (QN), initial steepest desc. (CG)
   ISIF   =      2    stress and relaxation
   IWAVPR =     11    prediction:  0-non 1-charg 2-wave 3-comb
   ISYM   =      0    0-nonsym 1-usesym 2-fastsym
   LCORR  =      T    Harris-Foulkes like correction to forces

   POTIM  = 0.5000    time-step for ionic-motion
   TEIN   =    0.0    initial temperature
   TEBEG  =    0.0;   TEEND  =   0.0 temperature during run
   SMASS  =  -3.00    Nose mass-parameter (am)
   estimated Nose-frequenzy (Omega)   =  0.10E-29 period in steps =****** mass=  -0.914E-26a.u.
   SCALEE = 1.0000    scale energy and forces
   NPACO  =    256;   APACO  = 16.0  distance and # of slots for P.C.
   PSTRESS=    0.0 pullay stress

  Mass of Ions in am
   POMASS =  12.01  1.00
  Ionic Valenz
   ZVAL   =   4.00  1.00
  Atomic Wigner-Seitz radii
   RWIGS  =  -1.00 -1.00
  virtual crystal weights 
   VCA    =   1.00  1.00
   NELECT =       8.0000    total number of electrons
   NUPDOWN=      -1.0000    fix difference up-down

 DOS related values:
   EMIN   =  10.00;   EMAX   =-10.00  energy-range for DOS
   EFERMI =   0.00
   ISMEAR =     1;   SIGMA  =   0.01  broadening in eV -4-tet -1-fermi 0-gaus

 Electronic relaxation 2 (details)
   IALGO  =     68    algorithm
   LDIAG  =      T    sub-space diagonalisation (order eigenvalues)
   LSUBROT=      T    optimize rotation matrix (better conditioning)
   TURBO    =      0    0=normal 1=particle mesh
   IRESTART =      0    0=no restart 2=restart with 2 vectors
   NREBOOT  =      0    no. of reboots
   NMIN     =      0    reboot dimension
   EREF     =   0.00    reference energy to select bands
   IMIX   =      4    mixing-type and parameters
     AMIX     =   0.40;   BMIX     =  1.00
     AMIX_MAG =   1.60;   BMIX_MAG =  1.00
     AMIN     =   0.10
     WC   =   100.;   INIMIX=   1;  MIXPRE=   1;  MAXMIX= -45

 Intra band minimization:
   WEIMIN = 0.0010     energy-eigenvalue tresh-hold
   EBREAK =  0.31E-07  absolut break condition
   DEPER  =   0.30     relativ break condition  

   TIME   =   0.40     timestep for ELM

  volume/ion in A,a.u.               =    1600.00     10797.33
  Fermi-wavevector in a.u.,A,eV,Ry     =   0.163710  0.309367  0.364649  0.026801
  Thomas-Fermi vector in A             =   0.862763
 
 Write flags
   LWAVE  =      F    write WAVECAR
   LCHARG =      F    write CHGCAR
   LVTOT  =      F    write LOCPOT, total local potential
   LVHAR  =      F    write LOCPOT, Hartree potential only
   LELF   =      F    write electronic localiz. function (ELF)
   LORBIT =      0    0 simple, 1 ext, 2 COOP (PROOUT)


 Dipole corrections
   LMONO  =      F    monopole corrections only (constant potential shift)
   LDIPOL =      F    correct potential (dipole corrections)
   IDIPOL =      0    1-x, 2-y, 3-z, 4-all directions 
   EPSILON=  1.0000000 bulk dielectric constant

 Exchange correlation treatment:
   GGA     =    --    GGA type
   LEXCH   =     8    internal setting for exchange type
   VOSKOWN=      1    Vosko Wilk Nusair interpolation
   LHFCALC =     F    Hartree Fock is set to
   LHFONE  =     F    Hartree Fock one center treatment
   AEXX    =    0.0000 exact exchange contribution

 Linear response parameters
   LEPSILON=     F    determine dielectric tensor
   LRPA    =     F    only Hartree local field effects (RPA)
   LNABLA  =     F    use nabla operator in PAW spheres
   LVEL    =     F    velocity operator in full k-point grid
   LINTERFAST=   F  fast interpolation
   KINTER  =     0    interpolate to denser k-point grid
   CSHIFT  =0.1000    complex shift for real part using Kramers Kronig
   OMEGAMAX=  -1.0    maximum frequency
   DEG_THRESHOLD= 0.2000000E-02 threshold for treating states as degnerate
   RTIME   =    0.100 relaxation time in fs

 Orbital magnetization related:
   ORBITALMAG=     F  switch on orbital magnetization
   LCHIMAG   =     F  perturbation theory with respect to B field
   DQ        =  0.001000  dq finite difference perturbation B field



--------------------------------------------------------------------------------------------------------


 quasi-Newton-method for relaxation of ions
   using selective dynamics as specified on POSCAR
 charge density and potential will be updated during run
 non-spin polarized calculation
 RMM-DIIS sequential band-by-band and
  variant of blocked Davidson during initial phase
 perform sub-space diagonalisation
    before iterative eigenvector-optimisation
 modified Broyden-mixing scheme, WC =      100.0
 initial mixing is a Kerker type mixing with AMIX =  0.4000 and BMIX =      1.0000
 Hartree-type preconditioning will be used
 using additional bands            4
 real space projection scheme for non local part
 use partial core corrections
 calculate Harris-corrections to forces 
   (improved forces if not selfconsistent)
 use gradient corrections 
 use of overlap-Matrix (Vanderbilt PP)
 Methfessel and Paxton  Order N= 1 SIGMA  =   0.01


--------------------------------------------------------------------------------------------------------


  energy-cutoff  :      400.00
  volume of cell :     8000.00
      direct lattice vectors                 reciprocal lattice vectors
    16.329931619 -8.164965809 -8.164965809     0.040824829 -0.020412415 -0.020412415
     0.000000000 14.142135624-14.142135624     0.000000000  0.035355339 -0.035355339
    11.547005384 11.547005384 11.547005384     0.028867513  0.028867513  0.028867513

  length of vectors
    20.000000000 20.000000000 20.000000000     0.050000000  0.050000000  0.050000000


 
 k-points in units of 2pi/SCALE and weight: K-Point Grid. Created by Vassili Vorotni
   0.00000000  0.00000000  0.00000000       1.000
 
 k-points in reciprocal lattice and weights: K-Point Grid. Created by Vassili Vorotni
   0.00000000  0.00000000  0.00000000       1.000
 
 position of ions in fractional coordinates (direct lattice) 
   0.35002533  0.54810021  0.51972919
   0.34133978  0.60224353  0.52048999
   0.39238969  0.53689956  0.48671368
   0.30508899  0.52263266  0.50128445
   0.36140342  0.53058472  0.57046382
 
 position of ions in cartesian coordinates  (Angst):
  11.71720540 10.89467839 -4.60793669
  11.58415596 11.74008277 -5.29393667
  12.02778234 10.00914349 -5.17666936
  10.77041659 10.68843509 -4.09384896
  12.48884193 11.13990341 -3.86729877
 


--------------------------------------------------------------------------------------------------------


 k-point  1 :   0.0000 0.0000 0.0000  plane waves:  145165

 maximum and minimum number of plane-waves per node :      7271     7241

 maximum number of plane-waves:    145165
 maximum index in each direction: 
   IXMAX=   32   IYMAX=   32   IZMAX=   32
   IXMIN=  -32   IYMIN=  -32   IZMIN=  -32

 WARNING: aliasing errors must be expected set NGX to 130 to avoid them
 WARNING: aliasing errors must be expected set NGY to 130 to avoid them
 WARNING: aliasing errors must be expected set NGZ to 130 to avoid them
 aliasing errors are usually negligible using standard VASP settings
 and one can safely disregard these warnings

 real space projection operators:
  total allocation   :        282.30 KBytes
  max/ min on nodes  :         26.73          2.23


 parallel 3D FFT for wavefunctions:
    minimum data exchange during FFTs selected (reduces bandwidth)
 parallel 3D FFT for charge:
    minimum data exchange during FFTs selected (reduces bandwidth)


 total amount of memory used by VASP on root node    57520. kBytes
========================================================================

   base      :      30000. kBytes
   nonlr-proj:        157. kBytes
   fftplans  :      10155. kBytes
   grid      :      16274. kBytes
   one-center:          3. kBytes
   wavefun   :        931. kBytes
 
 Broyden mixing: mesh for mixing (old mesh)
   NGX = 65   NGY = 65   NGZ = 65
  (NGX  =168   NGY  =168   NGZ  =168)
  gives a total of 274625 points

 initial charge density was supplied:
 charge density of overlapping atoms calculated
 number of electron       8.0000000 magnetization 
 keeping initial charge density in first step


--------------------------------------------------------------------------------------------------------


 Maximum index for non-local projection operator          124
 Maximum index for augmentation-charges          104 (set IRDMAX)


--------------------------------------------------------------------------------------------------------


 First call to EWALD:  gamma=   0.089
 Maximum number of real-space cells 3x 3x 3
 Maximum number of reciprocal cells 3x 3x 3

 FEWALD executed in parallel
    FEWALD:  cpu time    0.00: real time    0.00


----------------------------------------- Iteration    1(   1)  ---------------------------------------


    POTLOK:  cpu time    0.23: real time    0.23
    SETDIJ:  cpu time    0.00: real time    0.00
     EDDAV:  cpu time    0.24: real time    0.26
       DOS:  cpu time    0.00: real time    0.00
    --------------------------------------------
      LOOP:  cpu time    0.47: real time    0.50

 eigenvalue-minimisations  :    32
 total energy-change (2. order) : 0.2367905E+02  (-0.1519523E+03)
 number of electron       8.0000000 magnetization 
 augmentation part        8.0000000 magnetization 

 Free energy of the ion-electron system (eV)
  ---------------------------------------------------
  alpha Z        PSCENC =         0.03028135
  Ewald energy   TEWEN  =       193.00788834
  -1/2 Hartree   DENC   =      -306.57981985
  -exchange  EXHF       =         0.00000000
  -V(xc)+E(xc)   XCENC  =        22.00846247
  PAW double counting   =       117.05815612     -117.66307307
  entropy T*S    EENTRO =         0.00057979
  eigenvalues    EBANDS =       -81.22518388
  atomic energy  EATOM  =       197.04175453
  ---------------------------------------------------
  free energy    TOTEN  =        23.67904581 eV

  energy without entropy =       23.67846602  energy(sigma->0) =       23.67885255


--------------------------------------------------------------------------------------------------------




----------------------------------------- Iteration    1(   2)  ---------------------------------------


     EDDAV:  cpu time    0.14: real time    0.14
       DOS:  cpu time    0.00: real time    0.00
    --------------------------------------------
      LOOP:  cpu time    0.14: real time    0.17

 eigenvalue-minimisations  :    16
 total energy-change (2. order) :-0.4093078E+02  (-0.4093078E+02)
 number of electron       8.0000000 magnetization 
 augmentation part        8.0000000 magnetization 

 Free energy of the ion-electron system (eV)
  ---------------------------------------------------
  alpha Z        PSCENC =         0.03028135
  Ewald energy   TEWEN  =       193.00788834
  -1/2 Hartree   DENC   =      -306.57981985
  -exchange  EXHF       =         0.00000000
  -V(xc)+E(xc)   XCENC  =        22.00846247
  PAW double counting   =       117.05815612     -117.66307307
  entropy T*S    EENTRO =         0.00057979
  eigenvalues    EBANDS =      -122.15596481
  atomic energy  EATOM  =       197.04175453
  ---------------------------------------------------
  free energy    TOTEN  =       -17.25173512 eV

  energy without entropy =      -17.25231491  energy(sigma->0) =      -17.25192839


--------------------------------------------------------------------------------------------------------




----------------------------------------- Iteration    1(   3)  ---------------------------------------


     EDDAV:  cpu time    0.13: real time    0.13
       DOS:  cpu time    0.00: real time    0.00
    --------------------------------------------
      LOOP:  cpu time    0.13: real time    0.16

 eigenvalue-minimisations  :    16
 total energy-change (2. order) :-0.9697262E+01  (-0.9697262E+01)
 number of electron       8.0000000 magnetization 
 augmentation part        8.0000000 magnetization 

 Free energy of the ion-electron system (eV)
  ---------------------------------------------------
  alpha Z        PSCENC =         0.03028135
  Ewald energy   TEWEN  =       193.00788834
  -1/2 Hartree   DENC   =      -306.57981985
  -exchange  EXHF       =         0.00000000
  -V(xc)+E(xc)   XCENC  =        22.00846247
  PAW double counting   =       117.05815612     -117.66307307
  entropy T*S    EENTRO =         0.00057979
  eigenvalues    EBANDS =      -131.85322638
  atomic energy  EATOM  =       197.04175453
  ---------------------------------------------------
  free energy    TOTEN  =       -26.94899669 eV

  energy without entropy =      -26.94957648  energy(sigma->0) =      -26.94918995


--------------------------------------------------------------------------------------------------------




----------------------------------------- Iteration    1(   4)  ---------------------------------------


     EDDAV:  cpu time    0.23: real time    0.23
       DOS:  cpu time    0.00: real time    0.00
    --------------------------------------------
      LOOP:  cpu time    0.23: real time    0.25

 eigenvalue-minimisations  :    32
 total energy-change (2. order) :-0.6053742E+00  (-0.6047944E+00)
 number of electron       8.0000000 magnetization 
 augmentation part        8.0000000 magnetization 

 Free energy of the ion-electron system (eV)
  ---------------------------------------------------
  alpha Z        PSCENC =         0.03028135
  Ewald energy   TEWEN  =       193.00788834
  -1/2 Hartree   DENC   =      -306.57981985
  -exchange  EXHF       =         0.00000000
  -V(xc)+E(xc)   XCENC  =        22.00846247
  PAW double counting   =       117.05815612     -117.66307307
  entropy T*S    EENTRO =         0.00000000
  eigenvalues    EBANDS =      -132.45802079
  atomic energy  EATOM  =       197.04175453
  ---------------------------------------------------
  free energy    TOTEN  =       -27.55437089 eV

  energy without entropy =      -27.55437089  energy(sigma->0) =      -27.55437089


--------------------------------------------------------------------------------------------------------




----------------------------------------- Iteration    1(   5)  ---------------------------------------


     EDDAV:  cpu time    0.23: real time    0.23
       DOS:  cpu time    0.00: real time    0.00
    --------------------------------------------
      LOOP:  cpu time    0.23: real time    0.25

 eigenvalue-minimisations  :    32
 total energy-change (2. order) : 0.6562338E-05  (-0.5768634E-03)
 number of electron       8.0000000 magnetization 
 augmentation part        8.0000000 magnetization 

 Free energy of the ion-electron system (eV)
  ---------------------------------------------------
  alpha Z        PSCENC =         0.03028135
  Ewald energy   TEWEN  =       193.00788834
  -1/2 Hartree   DENC   =      -306.57981985
  -exchange  EXHF       =         0.00000000
  -V(xc)+E(xc)   XCENC  =        22.00846247
  PAW double counting   =       117.05815612     -117.66307307
  entropy T*S    EENTRO =         0.00061928
  eigenvalues    EBANDS =      -132.45863351
  atomic energy  EATOM  =       197.04175453
  ---------------------------------------------------
  free energy    TOTEN  =       -27.55436433 eV

  energy without entropy =      -27.55498361  energy(sigma->0) =      -27.55457076


--------------------------------------------------------------------------------------------------------




----------------------------------------- Iteration    1(   6)  ---------------------------------------


     EDDAV:  cpu time    0.23: real time    0.23
       DOS:  cpu time    0.00: real time    0.00
    --------------------------------------------
      LOOP:  cpu time    0.23: real time    0.25

 eigenvalue-minimisations  :    32
 total energy-change (2. order) :-0.5834776E-03  (-0.5276524E-07)
 number of electron       8.0000000 magnetization 
 augmentation part        8.0000000 magnetization 

 Free energy of the ion-electron system (eV)
  ---------------------------------------------------
  alpha Z        PSCENC =         0.03028135
  Ewald energy   TEWEN  =       193.00788834
  -1/2 Hartree   DENC   =      -306.57981985
  -exchange  EXHF       =         0.00000000
  -V(xc)+E(xc)   XCENC  =        22.00846247
  PAW double counting   =       117.05815612     -117.66307307
  entropy T*S    EENTRO =         0.00000000
  eigenvalues    EBANDS =      -132.45859771
  atomic energy  EATOM  =       197.04175453
  ---------------------------------------------------
  free energy    TOTEN  =       -27.55494781 eV

  energy without entropy =      -27.55494781  energy(sigma->0) =      -27.55494781


--------------------------------------------------------------------------------------------------------




----------------------------------------- Iteration    1(   7)  ---------------------------------------


     EDDAV:  cpu time    0.23: real time    0.23
       DOS:  cpu time    0.00: real time    0.00
    --------------------------------------------
      LOOP:  cpu time    0.23: real time    0.25

 eigenvalue-minimisations  :    32
 total energy-change (2. order) : 0.5834241E-03  (-0.1360689E-10)
 number of electron       8.0000000 magnetization 
 augmentation part        8.0000000 magnetization 

 Free energy of the ion-electron system (eV)
  ---------------------------------------------------
  alpha Z        PSCENC =         0.03028135
  Ewald energy   TEWEN  =       193.00788834
  -1/2 Hartree   DENC   =      -306.57981985
  -exchange  EXHF       =         0.00000000
  -V(xc)+E(xc)   XCENC  =        22.00846247
  PAW double counting   =       117.05815612     -117.66307307
  entropy T*S    EENTRO =         0.00061928
  eigenvalues    EBANDS =      -132.45863356
  atomic energy  EATOM  =       197.04175453
  ---------------------------------------------------
  free energy    TOTEN  =       -27.55436438 eV

  energy without entropy =      -27.55498366  energy(sigma->0) =      -27.55457081


--------------------------------------------------------------------------------------------------------




----------------------------------------- Iteration    1(   8)  ---------------------------------------


     EDDAV:  cpu time    0.23: real time    0.23
       DOS:  cpu time    0.00: real time    0.00
    --------------------------------------------
      LOOP:  cpu time    0.23: real time    0.25

 eigenvalue-minimisations  :    32
 total energy-change (2. order) : 0.1045123E-08  (-0.1094075E-11)
 number of electron       8.0000000 magnetization 
 augmentation part        8.0000000 magnetization 

 Free energy of the ion-electron system (eV)
  ---------------------------------------------------
  alpha Z        PSCENC =         0.03028135
  Ewald energy   TEWEN  =       193.00788834
  -1/2 Hartree   DENC   =      -306.57981985
  -exchange  EXHF       =         0.00000000
  -V(xc)+E(xc)   XCENC  =        22.00846247
  PAW double counting   =       117.05815612     -117.66307307
  entropy T*S    EENTRO =         0.00061928
  eigenvalues    EBANDS =      -132.45863356
  atomic energy  EATOM  =       197.04175453
  ---------------------------------------------------
  free energy    TOTEN  =       -27.55436438 eV

  energy without entropy =      -27.55498366  energy(sigma->0) =      -27.55457081


--------------------------------------------------------------------------------------------------------




----------------------------------------- Iteration    1(   9)  ---------------------------------------


     EDDAV:  cpu time    0.23: real time    0.23
       DOS:  cpu time    0.00: real time    0.00
    --------------------------------------------
      LOOP:  cpu time    0.23: real time    0.25

 eigenvalue-minimisations  :    32
 total energy-change (2. order) :-0.1018066E-08  (-0.1339119E-11)
 number of electron       8.0000000 magnetization 
 augmentation part        8.0000000 magnetization 

 Free energy of the ion-electron system (eV)
  ---------------------------------------------------
  alpha Z        PSCENC =         0.03028135
  Ewald energy   TEWEN  =       193.00788834
  -1/2 Hartree   DENC   =      -306.57981985
  -exchange  EXHF       =         0.00000000
  -V(xc)+E(xc)   XCENC  =        22.00846247
  PAW double counting   =       117.05815612     -117.66307307
  entropy T*S    EENTRO =         0.00061928
  eigenvalues    EBANDS =      -132.45863356
  atomic energy  EATOM  =       197.04175453
  ---------------------------------------------------
  free energy    TOTEN  =       -27.55436438 eV

  energy without entropy =      -27.55498366  energy(sigma->0) =      -27.55457081


--------------------------------------------------------------------------------------------------------




----------------------------------------- Iteration    1(  10)  ---------------------------------------


     EDDAV:  cpu time    0.23: real time    0.23
       DOS:  cpu time    0.00: real time    0.00
    CHARGE:  cpu time    0.02: real time    0.02
    MIXING:  cpu time    0.06: real time    0.06
    --------------------------------------------
      LOOP:  cpu time    0.31: real time    0.33

 eigenvalue-minimisations  :    32
 total energy-change (2. order) :-0.1964509E-09  (-0.9449073E-12)
 number of electron       8.0000006 magnetization 
 augmentation part        0.2251680 magnetization 

 Broyden mixing:
  rms(total) = 0.87115E+00    rms(broyden)= 0.87092E+00
  rms(prec ) = 0.97715E+00
  weight for this iteration     100.00

 Free energy of the ion-electron system (eV)
  ---------------------------------------------------
  alpha Z        PSCENC =         0.03028135
  Ewald energy   TEWEN  =       193.00788834
  -1/2 Hartree   DENC   =      -306.57981985
  -exchange  EXHF       =         0.00000000
  -V(xc)+E(xc)   XCENC  =        22.00846247
  PAW double counting   =       117.05815612     -117.66307307
  entropy T*S    EENTRO =         0.00061928
  eigenvalues    EBANDS =      -132.45863356
  atomic energy  EATOM  =       197.04175453
  ---------------------------------------------------
  free energy    TOTEN  =       -27.55436438 eV

  energy without entropy =      -27.55498366  energy(sigma->0) =      -27.55457081


--------------------------------------------------------------------------------------------------------




----------------------------------------- Iteration    1(  11)  ---------------------------------------


    POTLOK:  cpu time    0.21: real time    0.21
    SETDIJ:  cpu time    0.00: real time    0.00
    EDDIAG:  cpu time    0.02: real time    0.02
  RMM-DIIS:  cpu time    0.11: real time    0.11
    ORTHCH:  cpu time    0.00: real time    0.00
       DOS:  cpu time    0.00: real time    0.00
    CHARGE:  cpu time    0.02: real time    0.02
    MIXING:  cpu time    0.01: real time    0.01
    --------------------------------------------
      LOOP:  cpu time    0.38: real time    0.40

 eigenvalue-minimisations  :    16
 total energy-change (2. order) : 0.2892007E+01  (-0.5258735E+00)
 number of electron       8.0000010 magnetization 
 augmentation part        0.1983876 magnetization 

 Broyden mixing:
  rms(total) = 0.42917E+00    rms(broyden)= 0.42908E+00
  rms(prec ) = 0.46517E+00
  weight for this iteration     100.00

 eigenvalues of (default mixing * dielectric matrix)
  average eigenvalue GAMMA=   1.3033
  1.3033

 Free energy of the ion-electron system (eV)
  ---------------------------------------------------
  alpha Z        PSCENC =         0.03028135
  Ewald energy   TEWEN  =       193.00788834
  -1/2 Hartree   DENC   =      -326.40857776
  -exchange  EXHF       =         0.00000000
  -V(xc)+E(xc)   XCENC  =        23.20954117
  PAW double counting   =       238.27198273     -239.05155440
  entropy T*S    EENTRO =         0.00065581
  eigenvalues    EBANDS =      -110.76432950
  atomic energy  EATOM  =       197.04175453
  ---------------------------------------------------
  free energy    TOTEN  =       -24.66235773 eV

  energy without entropy =      -24.66301354  energy(sigma->0) =      -24.66257633


--------------------------------------------------------------------------------------------------------




----------------------------------------- Iteration    1(  12)  ---------------------------------------


    POTLOK:  cpu time    0.20: real time    0.20
    SETDIJ:  cpu time    0.00: real time    0.00
    EDDIAG:  cpu time    0.02: real time    0.02
  RMM-DIIS:  cpu time    0.11: real time    0.11
    ORTHCH:  cpu time    0.00: real time    0.00
       DOS:  cpu time    0.00: real time    0.00
    CHARGE:  cpu time    0.02: real time    0.02
    MIXING:  cpu time    0.01: real time    0.01
    --------------------------------------------
      LOOP:  cpu time    0.37: real time    0.39

 eigenvalue-minimisations  :    16
 total energy-change (2. order) : 0.4845049E+00  (-0.1135250E+00)
 number of electron       8.0000011 magnetization 
 augmentation part        0.1882154 magnetization 

 Broyden mixing:
  rms(total) = 0.23187E+00    rms(broyden)= 0.23181E+00
  rms(prec ) = 0.24521E+00
  weight for this iteration     100.00

 eigenvalues of (default mixing * dielectric matrix)
  average eigenvalue GAMMA=   1.8438
  1.4551  2.2324

 Free energy of the ion-electron system (eV)
  ---------------------------------------------------
  alpha Z        PSCENC =         0.03028135
  Ewald energy   TEWEN  =       193.00788834
  -1/2 Hartree   DENC   =      -337.84378576
  -exchange  EXHF       =         0.00000000
  -V(xc)+E(xc)   XCENC  =        24.04285297
  PAW double counting   =       361.16210627     -361.97959548
  entropy T*S    EENTRO =         0.00000000
  eigenvalues    EBANDS =       -99.63935511
  atomic energy  EATOM  =       197.04175453
  ---------------------------------------------------
  free energy    TOTEN  =       -24.17785287 eV

  energy without entropy =      -24.17785287  energy(sigma->0) =      -24.17785287


--------------------------------------------------------------------------------------------------------




----------------------------------------- Iteration    1(  13)  ---------------------------------------


    POTLOK:  cpu time    0.20: real time    0.20
    SETDIJ:  cpu time    0.00: real time    0.00
    EDDIAG:  cpu time    0.02: real time    0.02
  RMM-DIIS:  cpu time    0.11: real time    0.11
    ORTHCH:  cpu time    0.00: real time    0.00
       DOS:  cpu time    0.00: real time    0.00
    CHARGE:  cpu time    0.02: real time    0.02
    MIXING:  cpu time    0.01: real time    0.01
    --------------------------------------------
      LOOP:  cpu time    0.38: real time    0.40

 eigenvalue-minimisations  :    16
 total energy-change (2. order) : 0.1490245E+00  (-0.1656451E-01)
 number of electron       8.0000011 magnetization 
 augmentation part        0.1867564 magnetization 

 Broyden mixing:
  rms(total) = 0.22779E-01    rms(broyden)= 0.22755E-01
  rms(prec ) = 0.33276E-01
  weight for this iteration     100.00

 eigenvalues of (default mixing * dielectric matrix)
  average eigenvalue GAMMA=   1.5441
  2.2487  0.9851  1.3985

 Free energy of the ion-electron system (eV)
  ---------------------------------------------------
  alpha Z        PSCENC =         0.03028135
  Ewald energy   TEWEN  =       193.00788834
  -1/2 Hartree   DENC   =      -343.57840263
  -exchange  EXHF       =         0.00000000
  -V(xc)+E(xc)   XCENC  =        24.59355586
  PAW double counting   =       472.65183969     -473.43846758
  entropy T*S    EENTRO =         0.00066098
  eigenvalues    EBANDS =       -94.33793895
  atomic energy  EATOM  =       197.04175453
  ---------------------------------------------------
  free energy    TOTEN  =       -24.02882841 eV

  energy without entropy =      -24.02948939  energy(sigma->0) =      -24.02904873


--------------------------------------------------------------------------------------------------------




----------------------------------------- Iteration    1(  14)  ---------------------------------------


    POTLOK:  cpu time    0.20: real time    0.20
    SETDIJ:  cpu time    0.00: real time    0.00
    EDDIAG:  cpu time    0.02: real time    0.02
  RMM-DIIS:  cpu time    0.11: real time    0.11
    ORTHCH:  cpu time    0.00: real time    0.00
       DOS:  cpu time    0.00: real time    0.00
    CHARGE:  cpu time    0.02: real time    0.02
    MIXING:  cpu time    0.01: real time    0.01
    --------------------------------------------
      LOOP:  cpu time    0.38: real time    0.40

 eigenvalue-minimisations  :    16
 total energy-change (2. order) : 0.4778740E-02  (-0.1002736E-02)
 number of electron       8.0000011 magnetization 
 augmentation part        0.1862035 magnetization 

 Broyden mixing:
  rms(total) = 0.18341E-01    rms(broyden)= 0.18337E-01
  rms(prec ) = 0.26056E-01
  weight for this iteration     100.00

 eigenvalues of (default mixing * dielectric matrix)
  average eigenvalue GAMMA=   2.0529
  1.0205  1.3607  2.9152  2.9152

 Free energy of the ion-electron system (eV)
  ---------------------------------------------------
  alpha Z        PSCENC =         0.03028135
  Ewald energy   TEWEN  =       193.00788834
  -1/2 Hartree   DENC   =      -344.71052732
  -exchange  EXHF       =         0.00000000
  -V(xc)+E(xc)   XCENC  =        24.65185046
  PAW double counting   =       474.78982039     -475.57936937
  entropy T*S    EENTRO =         0.00073328
  eigenvalues    EBANDS =       -93.25648134
  atomic energy  EATOM  =       197.04175453
  ---------------------------------------------------
  free energy    TOTEN  =       -24.02404966 eV

  energy without entropy =      -24.02478295  energy(sigma->0) =      -24.02429409


--------------------------------------------------------------------------------------------------------




----------------------------------------- Iteration    1(  15)  ---------------------------------------


    POTLOK:  cpu time    0.21: real time    0.21
    SETDIJ:  cpu time    0.00: real time    0.00
    EDDIAG:  cpu time    0.02: real time    0.02
  RMM-DIIS:  cpu time    0.11: real time    0.11
    ORTHCH:  cpu time    0.00: real time    0.00
       DOS:  cpu time    0.00: real time    0.00
    CHARGE:  cpu time    0.02: real time    0.02
    MIXING:  cpu time    0.01: real time    0.01
    --------------------------------------------
      LOOP:  cpu time    0.38: real time    0.40

 eigenvalue-minimisations  :    16
 total energy-change (2. order) : 0.5942020E-02  (-0.2356429E-02)
 number of electron       8.0000011 magnetization 
 augmentation part        0.1851304 magnetization 

 Broyden mixing:
  rms(total) = 0.38101E-01    rms(broyden)= 0.38071E-01
  rms(prec ) = 0.41299E-01
  weight for this iteration     100.00

 eigenvalues of (default mixing * dielectric matrix)
  average eigenvalue GAMMA=   1.6445
  2.9056  2.9056  1.3590  1.0209  0.0311

 Free energy of the ion-electron system (eV)
  ---------------------------------------------------
  alpha Z        PSCENC =         0.03028135
  Ewald energy   TEWEN  =       193.00788834
  -1/2 Hartree   DENC   =      -346.94776683
  -exchange  EXHF       =         0.00000000
  -V(xc)+E(xc)   XCENC  =        24.72334018
  PAW double counting   =       461.41006247     -462.20324598
  entropy T*S    EENTRO =         0.00146384
  eigenvalues    EBANDS =       -91.08188555
  atomic energy  EATOM  =       197.04175453
  ---------------------------------------------------
  free energy    TOTEN  =       -24.01810764 eV

  energy without entropy =      -24.01957148  energy(sigma->0) =      -24.01859559


--------------------------------------------------------------------------------------------------------




----------------------------------------- Iteration    1(  16)  ---------------------------------------


    POTLOK:  cpu time    0.21: real time    0.21
    SETDIJ:  cpu time    0.00: real time    0.00
    EDDIAG:  cpu time    0.02: real time    0.02
  RMM-DIIS:  cpu time    0.11: real time    0.11
    ORTHCH:  cpu time    0.00: real time    0.00
       DOS:  cpu time    0.00: real time    0.00
    CHARGE:  cpu time    0.02: real time    0.02
    MIXING:  cpu time    0.01: real time    0.01
    --------------------------------------------
      LOOP:  cpu time    0.38: real time    0.41

 eigenvalue-minimisations  :    16
 total energy-change (2. order) : 0.3440841E-03  (-0.9557654E-04)
 number of electron       8.0000011 magnetization 
 augmentation part        0.1849674 magnetization 

 Broyden mixing:
  rms(total) = 0.41879E-01    rms(broyden)= 0.41874E-01
  rms(prec ) = 0.45333E-01
  weight for this iteration     100.00

 eigenvalues of (default mixing * dielectric matrix)
  average eigenvalue GAMMA=   1.4562
  3.0031  3.0031  1.3674  1.0080  0.2291  0.1264

 Free energy of the ion-electron system (eV)
  ---------------------------------------------------
  alpha Z        PSCENC =         0.03028135
  Ewald energy   TEWEN  =       193.00788834
  -1/2 Hartree   DENC   =      -346.94514335
  -exchange  EXHF       =         0.00000000
  -V(xc)+E(xc)   XCENC  =        24.72376826
  PAW double counting   =       461.63265576     -462.42567833
  entropy T*S    EENTRO =         0.00160265
  eigenvalues    EBANDS =       -91.08489279
  atomic energy  EATOM  =       197.04175453
  ---------------------------------------------------
  free energy    TOTEN  =       -24.01776356 eV

  energy without entropy =      -24.01936621  energy(sigma->0) =      -24.01829778


--------------------------------------------------------------------------------------------------------




----------------------------------------- Iteration    1(  17)  ---------------------------------------


    POTLOK:  cpu time    0.21: real time    0.21
    SETDIJ:  cpu time    0.00: real time    0.00
    EDDIAG:  cpu time    0.02: real time    0.02
  RMM-DIIS:  cpu time    0.11: real time    0.11
    ORTHCH:  cpu time    0.00: real time    0.00
       DOS:  cpu time    0.00: real time    0.00
    CHARGE:  cpu time    0.02: real time    0.02
    MIXING:  cpu time    0.01: real time    0.01
    --------------------------------------------
      LOOP:  cpu time    0.39: real time    0.41

 eigenvalue-minimisations  :    16
 total energy-change (2. order) : 0.4100366E-03  (-0.5139863E-04)
 number of electron       8.0000011 magnetization 
 augmentation part        0.1847659 magnetization 

 Broyden mixing:
  rms(total) = 0.31831E-01    rms(broyden)= 0.31808E-01
  rms(prec ) = 0.34411E-01
  weight for this iteration     100.00

 eigenvalues of (default mixing * dielectric matrix)
  average eigenvalue GAMMA=   1.2816
  3.0245  2.7864  1.3288  1.0160  0.4601  0.2127  0.1430

 Free energy of the ion-electron system (eV)
  ---------------------------------------------------
  alpha Z        PSCENC =         0.03028135
  Ewald energy   TEWEN  =       193.00788834
  -1/2 Hartree   DENC   =      -347.12097108
  -exchange  EXHF       =         0.00000000
  -V(xc)+E(xc)   XCENC  =        24.73282428
  PAW double counting   =       461.94739005     -462.74090521
  entropy T*S    EENTRO =         0.00107905
  eigenvalues    EBANDS =       -90.91669483
  atomic energy  EATOM  =       197.04175453
  ---------------------------------------------------
  free energy    TOTEN  =       -24.01735352 eV

  energy without entropy =      -24.01843258  energy(sigma->0) =      -24.01771321


--------------------------------------------------------------------------------------------------------




----------------------------------------- Iteration    1(  18)  ---------------------------------------


    POTLOK:  cpu time    0.21: real time    0.21
    SETDIJ:  cpu time    0.00: real time    0.00
    EDDIAG:  cpu time    0.02: real time    0.02
  RMM-DIIS:  cpu time    0.11: real time    0.11
    ORTHCH:  cpu time    0.00: real time    0.00
       DOS:  cpu time    0.00: real time    0.00
    CHARGE:  cpu time    0.02: real time    0.02
    MIXING:  cpu time    0.01: real time    0.01
    --------------------------------------------
      LOOP:  cpu time    0.38: real time    0.41

 eigenvalue-minimisations  :    16
 total energy-change (2. order) : 0.1363817E-03  (-0.1229593E-03)
 number of electron       8.0000011 magnetization 
 augmentation part        0.1849506 magnetization 

 Broyden mixing:
  rms(total) = 0.22244E-01    rms(broyden)= 0.22238E-01
  rms(prec ) = 0.24484E-01
  weight for this iteration     100.00

 eigenvalues of (default mixing * dielectric matrix)
  average eigenvalue GAMMA=   1.1255
  3.0116  2.7807  1.3247  1.0179  0.4704  0.2102  0.1441  0.0443

 Free energy of the ion-electron system (eV)
  ---------------------------------------------------
  alpha Z        PSCENC =         0.03028135
  Ewald energy   TEWEN  =       193.00788834
  -1/2 Hartree   DENC   =      -347.06390694
  -exchange  EXHF       =         0.00000000
  -V(xc)+E(xc)   XCENC  =        24.73552922
  PAW double counting   =       464.64132617     -465.43240794
  entropy T*S    EENTRO =         0.00112851
  eigenvalues    EBANDS =       -90.97881039
  atomic energy  EATOM  =       197.04175453
  ---------------------------------------------------
  free energy    TOTEN  =       -24.01721714 eV

  energy without entropy =      -24.01834566  energy(sigma->0) =      -24.01759331


--------------------------------------------------------------------------------------------------------




----------------------------------------- Iteration    1(  19)  ---------------------------------------


    POTLOK:  cpu time    0.21: real time    0.21
    SETDIJ:  cpu time    0.00: real time    0.00
    EDDIAG:  cpu time    0.02: real time    0.02
  RMM-DIIS:  cpu time    0.12: real time    0.12
    ORTHCH:  cpu time    0.00: real time    0.00
       DOS:  cpu time    0.00: real time    0.00
    CHARGE:  cpu time    0.02: real time    0.02
    MIXING:  cpu time    0.01: real time    0.01
    --------------------------------------------
      LOOP:  cpu time    0.39: real time    0.42

 eigenvalue-minimisations  :    16
 total energy-change (2. order) :-0.8012441E-04  (-0.1495692E-04)
 number of electron       8.0000011 magnetization 
 augmentation part        0.1850156 magnetization 

 Broyden mixing:
  rms(total) = 0.22471E-01    rms(broyden)= 0.22468E-01
  rms(prec ) = 0.24746E-01
  weight for this iteration     100.00

 eigenvalues of (default mixing * dielectric matrix)
  average eigenvalue GAMMA=   1.0746
  2.9923  2.4779  1.2026  1.2026  0.9422  0.2945  0.2199  0.1846  0.1547

 Free energy of the ion-electron system (eV)
  ---------------------------------------------------
  alpha Z        PSCENC =         0.03028135
  Ewald energy   TEWEN  =       193.00788834
  -1/2 Hartree   DENC   =      -347.05563067
  -exchange  EXHF       =         0.00000000
  -V(xc)+E(xc)   XCENC  =        24.73575596
  PAW double counting   =       465.00680386     -465.79753231
  entropy T*S    EENTRO =         0.00119853
  eigenvalues    EBANDS =       -90.98781686
  atomic energy  EATOM  =       197.04175453
  ---------------------------------------------------
  free energy    TOTEN  =       -24.01729727 eV

  energy without entropy =      -24.01849580  energy(sigma->0) =      -24.01769678


--------------------------------------------------------------------------------------------------------




----------------------------------------- Iteration    1(  20)  ---------------------------------------


    POTLOK:  cpu time    0.21: real time    0.21
    SETDIJ:  cpu time    0.00: real time    0.00
    EDDIAG:  cpu time    0.02: real time    0.02
  RMM-DIIS:  cpu time    0.12: real time    0.12
    ORTHCH:  cpu time    0.00: real time    0.00
       DOS:  cpu time    0.00: real time    0.00
    CHARGE:  cpu time    0.02: real time    0.02
    MIXING:  cpu time    0.01: real time    0.01
    --------------------------------------------
      LOOP:  cpu time    0.39: real time    0.42

 eigenvalue-minimisations  :    16
 total energy-change (2. order) :-0.3862546E-03  (-0.3181414E-03)
 number of electron       8.0000011 magnetization 
 augmentation part        0.1853594 magnetization 

 Broyden mixing:
  rms(total) = 0.82031E-02    rms(broyden)= 0.81723E-02
  rms(prec ) = 0.10519E-01
  weight for this iteration     100.00

 eigenvalues of (default mixing * dielectric matrix)
  average eigenvalue GAMMA=   1.4084
  4.7106  2.7887  2.4860  1.1404  1.0428  1.0428  0.2990  0.2181  0.2045  0.1509

 Free energy of the ion-electron system (eV)
  ---------------------------------------------------
  alpha Z        PSCENC =         0.03028135
  Ewald energy   TEWEN  =       193.00788834
  -1/2 Hartree   DENC   =      -346.94573449
  -exchange  EXHF       =         0.00000000
  -V(xc)+E(xc)   XCENC  =        24.73713702
  PAW double counting   =       468.20973053     -468.99717387
  entropy T*S    EENTRO =         0.00097219
  eigenvalues    EBANDS =       -91.10253913
  atomic energy  EATOM  =       197.04175453
  ---------------------------------------------------
  free energy    TOTEN  =       -24.01768352 eV

  energy without entropy =      -24.01865571  energy(sigma->0) =      -24.01800758


--------------------------------------------------------------------------------------------------------




----------------------------------------- Iteration    1(  21)  ---------------------------------------


    POTLOK:  cpu time    0.21: real time    0.21
    SETDIJ:  cpu time    0.00: real time    0.00
    EDDIAG:  cpu time    0.02: real time    0.02
  RMM-DIIS:  cpu time    0.12: real time    0.12
    ORTHCH:  cpu time    0.00: real time    0.00
       DOS:  cpu time    0.00: real time    0.00
    CHARGE:  cpu time    0.02: real time    0.02
    MIXING:  cpu time    0.01: real time    0.01
    --------------------------------------------
      LOOP:  cpu time    0.40: real time    0.42

 eigenvalue-minimisations  :    16
 total energy-change (2. order) :-0.6876129E-02  (-0.1755658E-03)
 number of electron       8.0000011 magnetization 
 augmentation part        0.1853374 magnetization 

 Broyden mixing:
  rms(total) = 0.46906E-02    rms(broyden)= 0.46538E-02
  rms(prec ) = 0.54743E-02
  weight for this iteration     100.00

 eigenvalues of (default mixing * dielectric matrix)
  average eigenvalue GAMMA=   1.3415
  4.6183  2.8611  2.4069  1.1282  1.1282  0.9583  0.7803  0.3017  0.2178  0.2050
  0.1509

 Free energy of the ion-electron system (eV)
  ---------------------------------------------------
  alpha Z        PSCENC =         0.03028135
  Ewald energy   TEWEN  =       193.00788834
  -1/2 Hartree   DENC   =      -347.61368106
  -exchange  EXHF       =         0.00000000
  -V(xc)+E(xc)   XCENC  =        24.75302899
  PAW double counting   =       466.76040620     -467.54750849
  entropy T*S    EENTRO =         0.00071942
  eigenvalues    EBANDS =       -90.45744895
  atomic energy  EATOM  =       197.04175453
  ---------------------------------------------------
  free energy    TOTEN  =       -24.02455965 eV

  energy without entropy =      -24.02527907  energy(sigma->0) =      -24.02479946


--------------------------------------------------------------------------------------------------------




----------------------------------------- Iteration    1(  22)  ---------------------------------------


    POTLOK:  cpu time    0.21: real time    0.21
    SETDIJ:  cpu time    0.00: real time    0.00
    EDDIAG:  cpu time    0.02: real time    0.02
  RMM-DIIS:  cpu time    0.12: real time    0.12
    ORTHCH:  cpu time    0.00: real time    0.00
       DOS:  cpu time    0.00: real time    0.00
    CHARGE:  cpu time    0.02: real time    0.02
    MIXING:  cpu time    0.02: real time    0.02
    --------------------------------------------
      LOOP:  cpu time    0.40: real time    0.42

 eigenvalue-minimisations  :    16
 total energy-change (2. order) :-0.1419992E-02  (-0.1534698E-04)
 number of electron       8.0000011 magnetization 
 augmentation part        0.1853189 magnetization 

 Broyden mixing:
  rms(total) = 0.42850E-02    rms(broyden)= 0.42822E-02
  rms(prec ) = 0.49542E-02
  weight for this iteration     100.00

 eigenvalues of (default mixing * dielectric matrix)
  average eigenvalue GAMMA=   1.6104
  5.6029  3.8812  2.4252  2.2766  1.1936  1.1936  0.9384  0.9384  0.3007  0.2179
  0.2051  0.1508

 Free energy of the ion-electron system (eV)
  ---------------------------------------------------
  alpha Z        PSCENC =         0.03028135
  Ewald energy   TEWEN  =       193.00788834
  -1/2 Hartree   DENC   =      -347.60152215
  -exchange  EXHF       =         0.00000000
  -V(xc)+E(xc)   XCENC  =        24.74902953
  PAW double counting   =       466.75267771     -467.53978570
  entropy T*S    EENTRO =         0.00069314
  eigenvalues    EBANDS =       -90.46699639
  atomic energy  EATOM  =       197.04175453
  ---------------------------------------------------
  free energy    TOTEN  =       -24.02597964 eV

  energy without entropy =      -24.02667278  energy(sigma->0) =      -24.02621069


--------------------------------------------------------------------------------------------------------




----------------------------------------- Iteration    1(  23)  ---------------------------------------


    POTLOK:  cpu time    0.22: real time    0.22
    SETDIJ:  cpu time    0.00: real time    0.00
    EDDIAG:  cpu time    0.03: real time    0.02
  RMM-DIIS:  cpu time    0.12: real time    0.12
    ORTHCH:  cpu time    0.00: real time    0.00
       DOS:  cpu time    0.00: real time    0.00
    CHARGE:  cpu time    0.02: real time    0.02
    MIXING:  cpu time    0.02: real time    0.02
    --------------------------------------------
      LOOP:  cpu time    0.41: real time    0.43

 eigenvalue-minimisations  :    16
 total energy-change (2. order) :-0.3820976E-02  (-0.7022187E-04)
 number of electron       8.0000011 magnetization 
 augmentation part        0.1853474 magnetization 

 Broyden mixing:
  rms(total) = 0.37263E-02    rms(broyden)= 0.37222E-02
  rms(prec ) = 0.40666E-02
  weight for this iteration     100.00

 eigenvalues of (default mixing * dielectric matrix)
  average eigenvalue GAMMA=   1.5884
  5.6896  3.5224  2.5448  1.9275  1.9275  1.0993  1.0993  1.0310  0.9326  0.3008
  0.2179  0.2051  0.1508

 Free energy of the ion-electron system (eV)
  ---------------------------------------------------
  alpha Z        PSCENC =         0.03028135
  Ewald energy   TEWEN  =       193.00788834
  -1/2 Hartree   DENC   =      -347.60308688
  -exchange  EXHF       =         0.00000000
  -V(xc)+E(xc)   XCENC  =        24.73940657
  PAW double counting   =       466.99448703     -467.78122821
  entropy T*S    EENTRO =         0.00000000
  eigenvalues    EBANDS =       -90.45930335
  atomic energy  EATOM  =       197.04175453
  ---------------------------------------------------
  free energy    TOTEN  =       -24.02980062 eV

  energy without entropy =      -24.02980062  energy(sigma->0) =      -24.02980062


--------------------------------------------------------------------------------------------------------




----------------------------------------- Iteration    1(  24)  ---------------------------------------


    POTLOK:  cpu time    0.22: real time    0.22
    SETDIJ:  cpu time    0.00: real time    0.00
    EDDIAG:  cpu time    0.02: real time    0.02
  RMM-DIIS:  cpu time    0.12: real time    0.13
    ORTHCH:  cpu time    0.00: real time    0.00
       DOS:  cpu time    0.00: real time    0.00
    CHARGE:  cpu time    0.02: real time    0.02
    MIXING:  cpu time    0.02: real time    0.02
    --------------------------------------------
      LOOP:  cpu time    0.41: real time    0.43

 eigenvalue-minimisations  :    16
 total energy-change (2. order) : 0.2276290E-03  (-0.2801536E-04)
 number of electron       8.0000011 magnetization 
 augmentation part        0.1852261 magnetization 

 Broyden mixing:
  rms(total) = 0.33808E-02    rms(broyden)= 0.33806E-02
  rms(prec ) = 0.36593E-02
  weight for this iteration     100.00

 eigenvalues of (default mixing * dielectric matrix)
  average eigenvalue GAMMA=   1.7983
  7.2037  4.5018  2.7879  2.4671  2.1718  1.1440  1.1440  1.0143  1.0143  0.8522
  0.3008  0.2179  0.2051  0.1508

 Free energy of the ion-electron system (eV)
  ---------------------------------------------------
  alpha Z        PSCENC =         0.03028135
  Ewald energy   TEWEN  =       193.00788834
  -1/2 Hartree   DENC   =      -347.72026944
  -exchange  EXHF       =         0.00000000
  -V(xc)+E(xc)   XCENC  =        24.74414702
  PAW double counting   =       466.78574160     -467.57344534
  entropy T*S    EENTRO =         0.00061180
  eigenvalues    EBANDS =       -90.34628286
  atomic energy  EATOM  =       197.04175453
  ---------------------------------------------------
  free energy    TOTEN  =       -24.02957299 eV

  energy without entropy =      -24.03018479  energy(sigma->0) =      -24.02977692


--------------------------------------------------------------------------------------------------------




----------------------------------------- Iteration    1(  25)  ---------------------------------------


    POTLOK:  cpu time    0.22: real time    0.22
    SETDIJ:  cpu time    0.00: real time    0.00
    EDDIAG:  cpu time    0.02: real time    0.02
  RMM-DIIS:  cpu time    0.13: real time    0.13
    ORTHCH:  cpu time    0.00: real time    0.00
       DOS:  cpu time    0.00: real time    0.00
    CHARGE:  cpu time    0.02: real time    0.02
    MIXING:  cpu time    0.02: real time    0.02
    --------------------------------------------
      LOOP:  cpu time    0.41: real time    0.44

 eigenvalue-minimisations  :    16
 total energy-change (2. order) :-0.4806001E-03  (-0.9454955E-05)
 number of electron       8.0000011 magnetization 
 augmentation part        0.1851986 magnetization 

 Broyden mixing:
  rms(total) = 0.41252E-02    rms(broyden)= 0.41251E-02
  rms(prec ) = 0.44214E-02
  weight for this iteration     100.00

 eigenvalues of (default mixing * dielectric matrix)
  average eigenvalue GAMMA=   1.8326
  7.4099  4.4292  3.0854  2.5436  2.1443  1.7502  1.2037  1.0809  1.0809  0.9880
  0.8981  0.3008  0.2179  0.2051  0.1508

 Free energy of the ion-electron system (eV)
  ---------------------------------------------------
  alpha Z        PSCENC =         0.03028135
  Ewald energy   TEWEN  =       193.00788834
  -1/2 Hartree   DENC   =      -347.72635046
  -exchange  EXHF       =         0.00000000
  -V(xc)+E(xc)   XCENC  =        24.74232566
  PAW double counting   =       466.42160257     -467.20950374
  entropy T*S    EENTRO =         0.00059776
  eigenvalues    EBANDS =       -90.33864962
  atomic energy  EATOM  =       197.04175453
  ---------------------------------------------------
  free energy    TOTEN  =       -24.03005359 eV

  energy without entropy =      -24.03065135  energy(sigma->0) =      -24.03025284


--------------------------------------------------------------------------------------------------------




----------------------------------------- Iteration    1(  26)  ---------------------------------------


    POTLOK:  cpu time    0.22: real time    0.22
    SETDIJ:  cpu time    0.00: real time    0.00
    EDDIAG:  cpu time    0.02: real time    0.02
  RMM-DIIS:  cpu time    0.13: real time    0.13
    ORTHCH:  cpu time    0.00: real time    0.00
       DOS:  cpu time    0.00: real time    0.00
    CHARGE:  cpu time    0.02: real time    0.02
    MIXING:  cpu time    0.02: real time    0.02
    --------------------------------------------
      LOOP:  cpu time    0.41: real time    0.44

 eigenvalue-minimisations  :    16
 total energy-change (2. order) :-0.1496077E-03  (-0.1964711E-05)
 number of electron       8.0000011 magnetization 
 augmentation part        0.1852128 magnetization 

 Broyden mixing:
  rms(total) = 0.45595E-02    rms(broyden)= 0.45595E-02
  rms(prec ) = 0.48583E-02
  weight for this iteration     100.00

 eigenvalues of (default mixing * dielectric matrix)
  average eigenvalue GAMMA=   1.9580
  8.0614  5.2137  3.7017  2.7132  2.4607  1.8709  1.3842  1.1077  1.1077  0.9983
  0.9388  0.8956  0.3008  0.2179  0.2051  0.1508

 Free energy of the ion-electron system (eV)
  ---------------------------------------------------
  alpha Z        PSCENC =         0.03028135
  Ewald energy   TEWEN  =       193.00788834
  -1/2 Hartree   DENC   =      -347.70964793
  -exchange  EXHF       =         0.00000000
  -V(xc)+E(xc)   XCENC  =        24.74127895
  PAW double counting   =       466.45350952     -467.24109479
  entropy T*S    EENTRO =         0.00058920
  eigenvalues    EBANDS =       -90.35476238
  atomic energy  EATOM  =       197.04175453
  ---------------------------------------------------
  free energy    TOTEN  =       -24.03020320 eV

  energy without entropy =      -24.03079240  energy(sigma->0) =      -24.03039960


--------------------------------------------------------------------------------------------------------




----------------------------------------- Iteration    1(  27)  ---------------------------------------


    POTLOK:  cpu time    0.22: real time    0.22
    SETDIJ:  cpu time    0.00: real time    0.00
    EDDIAG:  cpu time    0.02: real time    0.02
  RMM-DIIS:  cpu time    0.13: real time    0.13
    ORTHCH:  cpu time    0.00: real time    0.00
       DOS:  cpu time    0.00: real time    0.00
    CHARGE:  cpu time    0.02: real time    0.02
    MIXING:  cpu time    0.02: real time    0.02
    --------------------------------------------
      LOOP:  cpu time    0.41: real time    0.44

 eigenvalue-minimisations  :    16
 total energy-change (2. order) :-0.7458216E-04  (-0.5681836E-06)
 number of electron       8.0000011 magnetization 
 augmentation part        0.1852093 magnetization 

 Broyden mixing:
  rms(total) = 0.53069E-02    rms(broyden)= 0.53069E-02
  rms(prec ) = 0.56512E-02
  weight for this iteration     100.00

 eigenvalues of (default mixing * dielectric matrix)
  average eigenvalue GAMMA=   1.8870
  8.0589  5.2100  3.7058  2.6463  2.5070  1.6957  1.6957  1.1220  1.1220  0.9810
  0.9810  0.8783  0.2051  0.1508  0.3008  0.2179  0.6007

 Free energy of the ion-electron system (eV)
  ---------------------------------------------------
  alpha Z        PSCENC =         0.03028135
  Ewald energy   TEWEN  =       193.00788834
  -1/2 Hartree   DENC   =      -347.71694500
  -exchange  EXHF       =         0.00000000
  -V(xc)+E(xc)   XCENC  =        24.74152376
  PAW double counting   =       466.54197766     -467.32962937
  entropy T*S    EENTRO =         0.00058458
  eigenvalues    EBANDS =       -90.34771363
  atomic energy  EATOM  =       197.04175453
  ---------------------------------------------------
  free energy    TOTEN  =       -24.03027778 eV

  energy without entropy =      -24.03086236  energy(sigma->0) =      -24.03047264


--------------------------------------------------------------------------------------------------------




----------------------------------------- Iteration    1(  28)  ---------------------------------------


    POTLOK:  cpu time    0.22: real time    0.22
    SETDIJ:  cpu time    0.00: real time    0.00
    EDDIAG:  cpu time    0.02: real time    0.02
  RMM-DIIS:  cpu time    0.13: real time    0.13
    ORTHCH:  cpu time    0.00: real time    0.00
       DOS:  cpu time    0.00: real time    0.00
    CHARGE:  cpu time    0.02: real time    0.02
    MIXING:  cpu time    0.02: real time    0.02
    --------------------------------------------
      LOOP:  cpu time    0.42: real time    0.44

 eigenvalue-minimisations  :    16
 total energy-change (2. order) :-0.4735141E-04  (-0.9527137E-06)
 number of electron       8.0000011 magnetization 
 augmentation part        0.1851950 magnetization 

 Broyden mixing:
  rms(total) = 0.61926E-02    rms(broyden)= 0.61926E-02
  rms(prec ) = 0.65957E-02
  weight for this iteration     100.00

 eigenvalues of (default mixing * dielectric matrix)
  average eigenvalue GAMMA=   1.8723
  8.0739  5.2201  3.7141  2.5505  2.5505  1.7923  1.7923  1.1170  1.1098  1.1098
  1.0108  1.0108  0.8878  0.8878  0.3008  0.2179  0.2051  0.1508

 Free energy of the ion-electron system (eV)
  ---------------------------------------------------
  alpha Z        PSCENC =         0.03028135
  Ewald energy   TEWEN  =       193.00788834
  -1/2 Hartree   DENC   =      -347.72956289
  -exchange  EXHF       =         0.00000000
  -V(xc)+E(xc)   XCENC  =        24.74199021
  PAW double counting   =       466.54029893     -467.32806173
  entropy T*S    EENTRO =         0.00058198
  eigenvalues    EBANDS =       -90.33549585
  atomic energy  EATOM  =       197.04175453
  ---------------------------------------------------
  free energy    TOTEN  =       -24.03032513 eV

  energy without entropy =      -24.03090711  energy(sigma->0) =      -24.03051912


--------------------------------------------------------------------------------------------------------




----------------------------------------- Iteration    1(  29)  ---------------------------------------


    POTLOK:  cpu time    0.22: real time    0.22
    SETDIJ:  cpu time    0.00: real time    0.00
    EDDIAG:  cpu time    0.02: real time    0.02
  RMM-DIIS:  cpu time    0.10: real time    0.10
    ORTHCH:  cpu time    0.00: real time    0.00
       DOS:  cpu time    0.00: real time    0.00
    CHARGE:  cpu time    0.02: real time    0.02
    MIXING:  cpu time    0.02: real time    0.02
    --------------------------------------------
      LOOP:  cpu time    0.39: real time    0.42

 eigenvalue-minimisations  :    12
 total energy-change (2. order) :-0.8589488E-05  (-0.7775272E-07)
 number of electron       8.0000011 magnetization 
 augmentation part        0.1851936 magnetization 

 Broyden mixing:
  rms(total) = 0.64304E-02    rms(broyden)= 0.64304E-02
  rms(prec ) = 0.68484E-02
  weight for this iteration     100.00

 eigenvalues of (default mixing * dielectric matrix)
  average eigenvalue GAMMA=   1.8191
  8.0880  5.2201  3.7136  2.6079  2.5237  1.6915  1.6915  1.1052  1.1052  1.1170
  1.1170  0.9876  0.9876  0.8662  0.8662  0.3008  0.2179  0.2051  0.1508

 Free energy of the ion-electron system (eV)
  ---------------------------------------------------
  alpha Z        PSCENC =         0.03028135
  Ewald energy   TEWEN  =       193.00788834
  -1/2 Hartree   DENC   =      -347.72880787
  -exchange  EXHF       =         0.00000000
  -V(xc)+E(xc)   XCENC  =        24.74194022
  PAW double counting   =       466.54623571     -467.33399216
  entropy T*S    EENTRO =         0.00058153
  eigenvalues    EBANDS =       -90.33621538
  atomic energy  EATOM  =       197.04175453
  ---------------------------------------------------
  free energy    TOTEN  =       -24.03033372 eV

  energy without entropy =      -24.03091525  energy(sigma->0) =      -24.03052756


--------------------------------------------------------------------------------------------------------




----------------------------------------- Iteration    1(  30)  ---------------------------------------


    POTLOK:  cpu time    0.22: real time    0.22
    SETDIJ:  cpu time    0.00: real time    0.00
    EDDIAG:  cpu time    0.02: real time    0.02
  RMM-DIIS:  cpu time    0.10: real time    0.10
    ORTHCH:  cpu time    0.00: real time    0.00
       DOS:  cpu time    0.00: real time    0.00
    CHARGE:  cpu time    0.02: real time    0.02
    MIXING:  cpu time    0.03: real time    0.03
    --------------------------------------------
      LOOP:  cpu time    0.40: real time    0.42

 eigenvalue-minimisations  :    12
 total energy-change (2. order) :-0.7444151E-05  (-0.7741691E-07)
 number of electron       8.0000011 magnetization 
 augmentation part        0.1851928 magnetization 

 Broyden mixing:
  rms(total) = 0.67079E-02    rms(broyden)= 0.67079E-02
  rms(prec ) = 0.71421E-02
  weight for this iteration     100.00

 eigenvalues of (default mixing * dielectric matrix)
  average eigenvalue GAMMA=   2.1545
  8.3672  6.3587  5.5706  3.9028  3.1032  2.5533  2.2496  2.2496  1.2033  1.0571
  1.0571  1.0286  0.9892  0.9892  0.8804  0.2051  0.1508  0.3008  0.2179  0.6554

 Free energy of the ion-electron system (eV)
  ---------------------------------------------------
  alpha Z        PSCENC =         0.03028135
  Ewald energy   TEWEN  =       193.00788834
  -1/2 Hartree   DENC   =      -347.72832799
  -exchange  EXHF       =         0.00000000
  -V(xc)+E(xc)   XCENC  =        24.74192056
  PAW double counting   =       466.55552194     -467.34327457
  entropy T*S    EENTRO =         0.00058112
  eigenvalues    EBANDS =       -90.33668644
  atomic energy  EATOM  =       197.04175453
  ---------------------------------------------------
  free energy    TOTEN  =       -24.03034116 eV

  energy without entropy =      -24.03092228  energy(sigma->0) =      -24.03053487


--------------------------------------------------------------------------------------------------------




----------------------------------------- Iteration    1(  31)  ---------------------------------------


    POTLOK:  cpu time    0.22: real time    0.22
    SETDIJ:  cpu time    0.00: real time    0.00
    EDDIAG:  cpu time    0.02: real time    0.02
  RMM-DIIS:  cpu time    0.13: real time    0.13
    ORTHCH:  cpu time    0.00: real time    0.00
       DOS:  cpu time    0.00: real time    0.00
    CHARGE:  cpu time    0.02: real time    0.02
    MIXING:  cpu time    0.03: real time    0.03
    --------------------------------------------
      LOOP:  cpu time    0.43: real time    0.45

 eigenvalue-minimisations  :    16
 total energy-change (2. order) : 0.3148261E-04  (-0.1700186E-05)
 number of electron       8.0000011 magnetization 
 augmentation part        0.1851974 magnetization 

 Broyden mixing:
  rms(total) = 0.51572E-02    rms(broyden)= 0.51572E-02
  rms(prec ) = 0.54981E-02
  weight for this iteration     100.00

 eigenvalues of (default mixing * dielectric matrix)
  average eigenvalue GAMMA=   1.9866
  8.4047  5.6030  3.9832  2.3883  2.3883  3.1632  2.5574  2.2428  2.2428  1.2504
  1.0830  1.0830  1.0162  0.9603  0.9603  0.8803  0.2051  0.1508  0.2179  0.3008
  0.6365

 Free energy of the ion-electron system (eV)
  ---------------------------------------------------
  alpha Z        PSCENC =         0.03028135
  Ewald energy   TEWEN  =       193.00788834
  -1/2 Hartree   DENC   =      -347.72370396
  -exchange  EXHF       =         0.00000000
  -V(xc)+E(xc)   XCENC  =        24.74164703
  PAW double counting   =       466.51296354     -467.30066895
  entropy T*S    EENTRO =         0.00058679
  eigenvalues    EBANDS =       -90.34105834
  atomic energy  EATOM  =       197.04175453
  ---------------------------------------------------
  free energy    TOTEN  =       -24.03030968 eV

  energy without entropy =      -24.03089647  energy(sigma->0) =      -24.03050528


--------------------------------------------------------------------------------------------------------




----------------------------------------- Iteration    1(  32)  ---------------------------------------


    POTLOK:  cpu time    0.22: real time    0.22
    SETDIJ:  cpu time    0.00: real time    0.00
    EDDIAG:  cpu time    0.02: real time    0.02
  RMM-DIIS:  cpu time    0.10: real time    0.10
    ORTHCH:  cpu time    0.00: real time    0.00
       DOS:  cpu time    0.00: real time    0.00
    CHARGE:  cpu time    0.02: real time    0.02
    MIXING:  cpu time    0.03: real time    0.03
    --------------------------------------------
      LOOP:  cpu time    0.41: real time    0.43

 eigenvalue-minimisations  :    12
 total energy-change (2. order) : 0.2348584E-05  (-0.5892395E-07)
 number of electron       8.0000011 magnetization 
 augmentation part        0.1851986 magnetization 

 Broyden mixing:
  rms(total) = 0.50385E-02    rms(broyden)= 0.50385E-02
  rms(prec ) = 0.53715E-02
  weight for this iteration     100.00

 eigenvalues of (default mixing * dielectric matrix)
  average eigenvalue GAMMA=   1.8670
  8.4743  5.6686  4.0097  2.6648  3.2592  2.5624  2.2501  2.2501  1.2531  1.0828
  1.0828  1.0166  0.9576  0.9576  0.8795  0.8929  0.2051  0.1508  0.3008  0.2179
  0.6454  0.2924

 Free energy of the ion-electron system (eV)
  ---------------------------------------------------
  alpha Z        PSCENC =         0.03028135
  Ewald energy   TEWEN  =       193.00788834
  -1/2 Hartree   DENC   =      -347.72351154
  -exchange  EXHF       =         0.00000000
  -V(xc)+E(xc)   XCENC  =        24.74163636
  PAW double counting   =       466.51061592     -467.29831982
  entropy T*S    EENTRO =         0.00058765
  eigenvalues    EBANDS =       -90.34124012
  atomic energy  EATOM  =       197.04175453
  ---------------------------------------------------
  free energy    TOTEN  =       -24.03030733 eV

  energy without entropy =      -24.03089498  energy(sigma->0) =      -24.03050322


--------------------------------------------------------------------------------------------------------




----------------------------------------- Iteration    1(  33)  ---------------------------------------


    POTLOK:  cpu time    0.22: real time    0.22
    SETDIJ:  cpu time    0.00: real time    0.00
    EDDIAG:  cpu time    0.02: real time    0.02
  RMM-DIIS:  cpu time    0.10: real time    0.10
    ORTHCH:  cpu time    0.00: real time    0.00
       DOS:  cpu time    0.00: real time    0.00
    CHARGE:  cpu time    0.02: real time    0.02
    MIXING:  cpu time    0.04: real time    0.04
    --------------------------------------------
      LOOP:  cpu time    0.41: real time    0.44

 eigenvalue-minimisations  :    12
 total energy-change (2. order) :-0.6781675E-05  (-0.3541900E-07)
 number of electron       8.0000011 magnetization 
 augmentation part        0.1852003 magnetization 

 Broyden mixing:
  rms(total) = 0.50342E-02    rms(broyden)= 0.50342E-02
  rms(prec ) = 0.53676E-02
  weight for this iteration     100.00

 eigenvalues of (default mixing * dielectric matrix)
  average eigenvalue GAMMA=   2.1273
  8.5862  7.8859  5.8413  3.9698  3.5324  2.4807  2.1744  2.1744  1.5649  1.5649
  1.3252  1.1029  1.1029  0.9989  0.9792  0.9792  0.8883  0.2051  0.1508  0.2179
  0.3008  0.5699  0.3313

 Free energy of the ion-electron system (eV)
  ---------------------------------------------------
  alpha Z        PSCENC =         0.03028135
  Ewald energy   TEWEN  =       193.00788834
  -1/2 Hartree   DENC   =      -347.72198699
  -exchange  EXHF       =         0.00000000
  -V(xc)+E(xc)   XCENC  =        24.74151711
  PAW double counting   =       466.50934658     -467.29703615
  entropy T*S    EENTRO =         0.00058825
  eigenvalues    EBANDS =       -90.34266714
  atomic energy  EATOM  =       197.04175453
  ---------------------------------------------------
  free energy    TOTEN  =       -24.03031412 eV

  energy without entropy =      -24.03090237  energy(sigma->0) =      -24.03051020


--------------------------------------------------------------------------------------------------------




----------------------------------------- Iteration    1(  34)  ---------------------------------------


    POTLOK:  cpu time    0.22: real time    0.22
    SETDIJ:  cpu time    0.00: real time    0.00
    EDDIAG:  cpu time    0.02: real time    0.02
  RMM-DIIS:  cpu time    0.13: real time    0.13
    ORTHCH:  cpu time    0.00: real time    0.00
       DOS:  cpu time    0.00: real time    0.00
    CHARGE:  cpu time    0.02: real time    0.02
    MIXING:  cpu time    0.04: real time    0.04
    --------------------------------------------
      LOOP:  cpu time    0.45: real time    0.47

 eigenvalue-minimisations  :    16
 total energy-change (2. order) : 0.8887623E-05  (-0.2002538E-05)
 number of electron       8.0000011 magnetization 
 augmentation part        0.1852036 magnetization 

 Broyden mixing:
  rms(total) = 0.41948E-02    rms(broyden)= 0.41943E-02
  rms(prec ) = 0.44758E-02
  weight for this iteration     100.00

 eigenvalues of (default mixing * dielectric matrix)
  average eigenvalue GAMMA=   2.0847
  8.2244  8.5690  5.7993  3.8987  3.5779  2.5130  2.1549  2.1549  1.8429  1.8429
  1.3195  1.1018  1.1018  1.0053  0.9785  0.9785  0.8878  0.2051  0.1508  0.2179
  0.3008  0.5885  0.3096  0.3096

 Free energy of the ion-electron system (eV)
  ---------------------------------------------------
  alpha Z        PSCENC =         0.03028135
  Ewald energy   TEWEN  =       193.00788834
  -1/2 Hartree   DENC   =      -347.71974813
  -exchange  EXHF       =         0.00000000
  -V(xc)+E(xc)   XCENC  =        24.74136109
  PAW double counting   =       466.48536730     -467.27303552
  entropy T*S    EENTRO =         0.00062626
  eigenvalues    EBANDS =       -90.34480046
  atomic energy  EATOM  =       197.04175453
  ---------------------------------------------------
  free energy    TOTEN  =       -24.03030523 eV

  energy without entropy =      -24.03093149  energy(sigma->0) =      -24.03051398


--------------------------------------------------------------------------------------------------------




----------------------------------------- Iteration    1(  35)  ---------------------------------------


    POTLOK:  cpu time    0.22: real time    0.22
    SETDIJ:  cpu time    0.00: real time    0.00
    EDDIAG:  cpu time    0.02: real time    0.02
  RMM-DIIS:  cpu time    0.12: real time    0.12
    ORTHCH:  cpu time    0.00: real time    0.00
       DOS:  cpu time    0.00: real time    0.00
    CHARGE:  cpu time    0.02: real time    0.02
    MIXING:  cpu time    0.05: real time    0.05
    --------------------------------------------
      LOOP:  cpu time    0.44: real time    0.47

 eigenvalue-minimisations  :    15
 total energy-change (2. order) : 0.2314062E-05  (-0.3800499E-06)
 number of electron       8.0000011 magnetization 
 augmentation part        0.1852022 magnetization 

 Broyden mixing:
  rms(total) = 0.43176E-02    rms(broyden)= 0.43169E-02
  rms(prec ) = 0.46018E-02
  weight for this iteration     100.00

[...]
   10.77027   10.68890   -4.09430      -0.00318   -0.00068    0.00173      3.1         37.4  1.0
   12.48846   11.13987   -3.86664       0.00259    0.00082    0.00249      3.1         37.4  1.0

  FORCE on cell =-STRESS in cart. coord.  units (eV):
  Direction    XX          YY          ZZ          XY          YZ          ZX
  --------------------------------------------------------------------------------------
  DFT-D       0.00539     0.00536     0.00540    -0.00002     0.00000     0.00000
    FORVDW:  cpu time    0.01: real time    0.02

  FORCE on cell =-STRESS in cart. coord.  units (eV):
  Direction    XX          YY          ZZ          XY          YZ          ZX
  --------------------------------------------------------------------------------------
  Alpha Z     0.03028     0.03028     0.03028
  Ewald      64.38694    64.12512    64.49612    -0.19374    -0.05697     0.02178
  Hartree   115.92335   115.82742   115.94826    -0.06925    -0.00008    -0.01464
  E(xc)     -27.20885   -27.21025   -27.20831    -0.00105    -0.00015     0.00006
  Local    -238.86796  -238.52437  -238.97760     0.24888     0.03284     0.02121
  n-local   -15.89479   -15.88928   -15.89487     0.00424     0.00037     0.00408
  augment     0.11601     0.11593     0.11599     0.00023     0.00012     0.00009
  Kinetic   101.12431   101.14783   101.10809     0.02111     0.00993    -0.02180
  Fock        0.00000     0.00000     0.00000     0.00000     0.00000     0.00000
  -------------------------------------------------------------------------------------
  Total      -0.38532    -0.37197    -0.37665     0.01040    -0.01394     0.01077
  in kB      -0.07717    -0.07449    -0.07543     0.00208    -0.00279     0.00216
  external pressure =       -0.08 kB  Pullay stress =        0.00 kB


 VOLUME and BASIS-vectors are now :
 -----------------------------------------------------------------------------
  energy-cutoff  :      400.00
  volume of cell :     8000.00
      direct lattice vectors                 reciprocal lattice vectors
    16.329931619 -8.164965809 -8.164965809     0.040824829 -0.020412415 -0.020412415
     0.000000000 14.142135624-14.142135624     0.000000000  0.035355339 -0.035355339
    11.547005384 11.547005384 11.547005384     0.028867513  0.028867513  0.028867513

  length of vectors
    20.000000000 20.000000000 20.000000000     0.050000000  0.050000000  0.050000000


 FORCES acting on ions
    electron-ion (+dipol)            ewald-force                    non-local-force                 convergence-correction
 -----------------------------------------------------------------------------------------------
   -.279E-01 -.278E-01 -.245E-01   0.139E-01 -.562E-02 0.289E-01   -.244E-02 -.138E-01 -.520E-02   0.214E-02 0.124E-01 -.107E-02
   0.650E+01 -.411E+02 0.334E+02   -.717E+01 0.453E+02 -.368E+02   0.672E+00 -.423E+01 0.344E+01   0.846E-03 0.127E-02 0.783E-03
   -.151E+02 0.430E+02 0.276E+02   0.166E+02 -.474E+02 -.304E+02   -.155E+01 0.443E+01 0.285E+01   -.135E-02 -.173E-03 0.382E-03
   0.460E+02 0.100E+02 -.249E+02   -.508E+02 -.110E+02 0.275E+02   0.474E+01 0.103E+01 -.257E+01   0.784E-04 -.684E-03 -.877E-03
   -.374E+02 -.119E+02 -.360E+02   0.413E+02 0.131E+02 0.397E+02   -.386E+01 -.123E+01 -.371E+01   0.274E-03 0.200E-02 -.562E-03
 -----------------------------------------------------------------------------------------------
   -.934E-02 0.149E-02 0.155E-02   0.000E+00 0.178E-14 0.711E-14   0.484E-02 -.119E-01 -.295E-03   0.198E-02 0.148E-01 -.135E-02
 
 
 POSITION                                       TOTAL-FORCE (eV/Angst)
 -----------------------------------------------------------------------------------
     11.71770     10.89482     -4.60782        -0.013824     -0.035746     -0.001774
     11.58386     11.73958     -5.29425         0.004194      0.014333     -0.006552
     12.02810     10.00907     -5.17668        -0.001282      0.012707      0.008229
     10.77027     10.68890     -4.09430         0.005527      0.002152     -0.001779
     12.48846     11.13987     -3.86664         0.005385      0.006554      0.001877
 -----------------------------------------------------------------------------------
    total drift:                               -0.002509      0.004385     -0.000094


--------------------------------------------------------------------------------------------------------



  FREE ENERGIE OF THE ION-ELECTRON SYSTEM (eV)
  ---------------------------------------------------
  free  energy   TOTEN  =       -24.03231306 eV

  energy  without entropy=      -24.03294855  energy(sigma->0) =      -24.03252489
 
 d Force =-0.4865773E-05[-0.177E-04, 0.795E-05]  d Energy =-0.1042188E-04 0.556E-05
 d Force =-0.4538916E-03[-0.440E-03,-0.468E-03]  d Ewald  =-0.4538915E-03-0.540E-10


--------------------------------------------------------------------------------------------------------


    POTLOK:  cpu time    0.22: real time    0.22


--------------------------------------------------------------------------------------------------------


 stress matrix after NEB project (eV)
     -0.38532      0.01040      0.01077
      0.01040     -0.37197     -0.01394
      0.01077     -0.01394     -0.37665
  FORCES: max atom, RMS     0.038367    0.020409
  FORCE total and by dimension    0.045636    0.035746
  Stress total and by dimension    0.655389    0.385323
 Quasi-Newton relaxation of ions (Broydens 2nd method)
  g(Force)  = 0.100E-03   g(Stress)= 0.000E+00

 retain information from N=  2 steps
 eigenvalues of (default step * inverse Hessian matrix)
  average eigenvalue of G=   0.3134
 eigenvalue spectrum of G is  0.2500  0.3768


--------------------------------------------------------------------------------------------------------


    WAVPRE:  cpu time    0.04: real time    0.05
 FEWALD executed in parallel
    FEWALD:  cpu time    0.00: real time    0.00

 real space projection operators:
  total allocation   :        282.34 KBytes
  max/ min on nodes  :         26.73          2.23

    ORTHCH:  cpu time    0.01: real time    0.01
     LOOP+:  cpu time    2.44: real time    2.62


----------------------------------------- Iteration   30(   1)  ---------------------------------------


    POTLOK:  cpu time    1.11: real time    1.11
    SETDIJ:  cpu time    0.00: real time    0.00
     EDDAV:  cpu time    0.25: real time    0.25
       DOS:  cpu time    0.00: real time    0.00
    CHARGE:  cpu time    0.02: real time    0.02
    MIXING:  cpu time    0.01: real time    0.01
    --------------------------------------------
      LOOP:  cpu time    1.39: real time    1.40

 eigenvalue-minimisations  :    32
 total energy-change (2. order) :-0.1140118E-04  (-0.2474465E-04)
 number of electron       8.0000011 magnetization 
 augmentation part        0.1852421 magnetization 

  free energy =  -0.240302789046E+02  energy without entropy=  -0.240308965858E+02


--------------------------------------------------------------------------------------------------------




----------------------------------------- Iteration   30(   2)  ---------------------------------------


    POTLOK:  cpu time    0.22: real time    0.22
    SETDIJ:  cpu time    0.00: real time    0.00
    EDDIAG:  cpu time    0.02: real time    0.02
  RMM-DIIS:  cpu time    0.10: real time    0.10
    ORTHCH:  cpu time    0.00: real time    0.00
       DOS:  cpu time    0.00: real time    0.00
    CHARGE:  cpu time    0.02: real time    0.02
    MIXING:  cpu time    0.01: real time    0.01
    --------------------------------------------
      LOOP:  cpu time    0.38: real time    0.40

 eigenvalue-minimisations  :    13
 total energy-change (2. order) :-0.2012683E-05  (-0.4611126E-06)
 number of electron       8.0000011 magnetization 
 augmentation part        0.1852410 magnetization 

 eigenvalues of (default mixing * dielectric matrix)
  average eigenvalue GAMMA=   2.3486
  2.3486

  free energy =  -0.240302809173E+02  energy without entropy=  -0.240309041683E+02


--------------------------------------------------------------------------------------------------------




----------------------------------------- Iteration   30(   3)  ---------------------------------------


    POTLOK:  cpu time    0.22: real time    0.22
    SETDIJ:  cpu time    0.00: real time    0.00
    EDDIAG:  cpu time    0.02: real time    0.02
  RMM-DIIS:  cpu time    0.11: real time    0.11
    ORTHCH:  cpu time    0.00: real time    0.00
       DOS:  cpu time    0.00: real time    0.00
    --------------------------------------------
      LOOP:  cpu time    0.36: real time    0.38

 eigenvalue-minimisations  :    14
 total energy-change (2. order) : 0.5375869E-06  (-0.2591131E-06)
 number of electron       8.0000011 magnetization 
 augmentation part        0.1852410 magnetization 

  free energy =  -0.240302803797E+02  energy without entropy=  -0.240309171781E+02


--------------------------------------------------------------------------------------------------------




 average (electrostatic) potential at core
  the test charge radii are     0.6991  0.5201
  (the norm of the test charge is              1.0000)
       1 -58.0724       2 -41.6035       3 -41.6015       4 -41.6008       5 -41.6016
 
 
 
 E-fermi :  -9.3768     XC(G=0):  -0.1107     alpha+bet : -0.0263


 k-point   1 :       0.0000    0.0000    0.0000
  band No.  band energies     occupation 
      1     -16.9914      2.00000
      2      -9.4037      2.00095
      3      -9.4021      2.00199
      4      -9.3852      1.99707
      5      -0.4123      0.00000
      6       0.0691      0.00000
      7       0.2966      0.00000
      8       0.3027      0.00000


--------------------------------------------------------------------------------------------------------


 soft charge-density along one line, spin component           1
         0         1         2         3         4         5         6         7         8         9
 total charge-density along one line
 
 pseudopotential strength for first ion, spin component:           1
 10.210  13.577   0.000   0.000   0.000  -0.000  -0.000  -0.000
 13.577  18.055   0.000   0.000   0.000  -0.000  -0.000  -0.000
  0.000   0.000  -4.339  -0.000  -0.000   8.490   0.000   0.000
  0.000   0.000  -0.000  -4.339  -0.000   0.000   8.490   0.000
  0.000   0.000  -0.000  -0.000  -4.339   0.000   0.000   8.490
 -0.000  -0.000   8.490   0.000   0.000 -18.747  -0.000  -0.000
 -0.000  -0.000   0.000   8.490   0.000  -0.000 -18.747  -0.000
 -0.000  -0.000   0.000   0.000   8.490  -0.000  -0.000 -18.747
 total augmentation occupancy for first ion, spin component:           1
  7.593  -3.238   0.003  -0.001  -0.001   0.000  -0.000  -0.000
 -3.238   1.381  -0.002   0.001   0.001  -0.000   0.000   0.000
  0.003  -0.002   1.631  -0.000  -0.001   0.138  -0.000  -0.000
 -0.001   0.001  -0.000   1.634  -0.000  -0.000   0.138  -0.000
 -0.001   0.001  -0.001  -0.000   1.633  -0.000  -0.000   0.138
  0.000  -0.000   0.138  -0.000  -0.000   0.012  -0.000  -0.000
 -0.000   0.000  -0.000   0.138  -0.000  -0.000   0.012  -0.000
 -0.000   0.000  -0.000  -0.000   0.138  -0.000  -0.000   0.012


------------------------ aborting loop because EDIFF is reached ----------------------------------------


    CHARGE:  cpu time    0.02: real time    0.02
    FORLOC:  cpu time    0.01: real time    0.01
    FORNL :  cpu time    0.04: real time    0.04
    STRESS:  cpu time    0.13: real time    0.13
    FORCOR:  cpu time    0.22: real time    0.22
    FORHAR:  cpu time    0.07: real time    0.07
    MIXING:  cpu time    0.01: real time    0.01
 _________________________________
                                  
|         DFTD3 V3.0 Rev 1        |
| S.Grimme, University Bonn       |
|        November  2012           |
 _________________________________

Please cite DFT-D3 as:
S. Grimme, J. Antony, S. Ehrlich and H. Krieg,
J. Chem. Phys. 132 (2010), 154104
If used with BJ-damping cite also
S. Grimme, S. Ehrlich and L. Goerigk,
J. Comput. Chem. 32 (2011), 1456-1465
For DFT-D2 the reference is
S. Grimme, J. Comput. Chem., 27 (2006), 1787

           DFT-D V3
 DF pbe       
 parameters
 s6       :    1.0000
 s8       :    0.7220
 rs6      :    1.2170
 rs18     :    1.0000
 alpha6   :   14.0000
 alpha8   :   16.0000
 k1-k3    :   16.0000    1.3333   -4.0000
 Cutoff    /Ang:   50.2022
 CN-Cutoff /Ang:   21.1671
 Edisp /eV,au:    -0.0020 -0.00007517

 E6    /eV :    -0.0002
 E8    /eV :    -0.0025
 % E8        :122.79

 POSITION                                vdW-FORCE (eV/Ang)               C6          C8     CN


 ---------------------------------------------------------------------------------------------

   11.71766   10.89454   -4.60786      -0.00000    0.00000   -0.00000     18.4        531.0  4.0
   11.58397   11.73972   -5.29425      -0.00045    0.00284   -0.00231      3.1         37.4  1.0
   12.02804   10.00915   -5.17660       0.00105   -0.00297   -0.00191      3.1         37.4  1.0
   10.77025   10.68885   -4.09429      -0.00318   -0.00068    0.00173      3.1         37.4  1.0
   12.48848   11.13999   -3.86670       0.00259    0.00082    0.00249      3.1         37.4  1.0

  FORCE on cell =-STRESS in cart. coord.  units (eV):
  Direction    XX          YY          ZZ          XY          YZ          ZX
  --------------------------------------------------------------------------------------
  DFT-D       0.00539     0.00536     0.00540    -0.00002    -0.00000     0.00000
    FORVDW:  cpu time    0.01: real time    0.02

  FORCE on cell =-STRESS in cart. coord.  units (eV):
  Direction    XX          YY          ZZ          XY          YZ          ZX
  --------------------------------------------------------------------------------------
  Alpha Z     0.03028     0.03028     0.03028
  Ewald      64.38609    64.14291    64.47889    -0.18836    -0.02657    -0.00209
  Hartree   115.91899   115.83237   115.94767    -0.06396    -0.00427    -0.00779
  E(xc)     -27.20884   -27.21017   -27.20833    -0.00101    -0.00008     0.00002
  Local    -238.85747  -238.54455  -238.96773     0.23582     0.02386     0.01875
  n-local   -15.89349   -15.88978   -15.89559     0.00411     0.00082     0.00176
  augment     0.11599     0.11588     0.11605     0.00023     0.00001     0.00022
  Kinetic   101.11871   101.14538   101.11631     0.01867     0.00420    -0.00716
  Fock        0.00000     0.00000     0.00000     0.00000     0.00000     0.00000
  -------------------------------------------------------------------------------------
  Total      -0.38435    -0.37233    -0.37706     0.00548    -0.00203     0.00370
  in kB      -0.07698    -0.07457    -0.07551     0.00110    -0.00041     0.00074
  external pressure =       -0.08 kB  Pullay stress =        0.00 kB


 VOLUME and BASIS-vectors are now :
 -----------------------------------------------------------------------------
  energy-cutoff  :      400.00
  volume of cell :     8000.00
      direct lattice vectors                 reciprocal lattice vectors
    16.329931619 -8.164965809 -8.164965809     0.040824829 -0.020412415 -0.020412415
     0.000000000 14.142135624-14.142135624     0.000000000  0.035355339 -0.035355339
    11.547005384 11.547005384 11.547005384     0.028867513  0.028867513  0.028867513

  length of vectors
    20.000000000 20.000000000 20.000000000     0.050000000  0.050000000  0.050000000


 FORCES acting on ions
    electron-ion (+dipol)            ewald-force                    non-local-force                 convergence-correction
 -----------------------------------------------------------------------------------------------
   -.110E-01 -.120E-01 -.263E-01   0.211E-02 0.386E-02 0.302E-01   -.279E-02 0.318E-03 -.354E-02   0.469E-02 0.224E-02 -.203E-03
   0.649E+01 -.411E+02 0.333E+02   -.716E+01 0.453E+02 -.368E+02   0.670E+00 -.423E+01 0.344E+01   0.673E-03 0.487E-03 0.226E-03
   -.151E+02 0.430E+02 0.276E+02   0.166E+02 -.474E+02 -.305E+02   -.155E+01 0.443E+01 0.285E+01   -.341E-03 -.209E-03 0.390E-03
   0.460E+02 0.100E+02 -.249E+02   -.508E+02 -.110E+02 0.275E+02   0.474E+01 0.103E+01 -.257E+01   0.229E-03 -.663E-03 -.312E-03
   -.374E+02 -.119E+02 -.360E+02   0.413E+02 0.132E+02 0.397E+02   -.386E+01 -.123E+01 -.371E+01   0.418E-03 0.543E-03 -.293E-03
 -----------------------------------------------------------------------------------------------
   -.890E-02 -.109E-02 -.173E-02   0.000E+00 0.355E-14 0.142E-13   0.539E-03 0.203E-02 0.191E-02   0.567E-02 0.240E-02 -.192E-03
 
 
 POSITION                                       TOTAL-FORCE (eV/Angst)
 -----------------------------------------------------------------------------------
     11.71766     10.89454     -4.60786        -0.006474     -0.006251      0.000138
     11.58397     11.73972     -5.29425         0.003078      0.003714     -0.000949
     12.02804     10.00915     -5.17660         0.000265      0.000822      0.001890
     10.77025     10.68885     -4.09429         0.002459     -0.000718     -0.000868
     12.48848     11.13999     -3.86670         0.000671      0.002433     -0.000211
 -----------------------------------------------------------------------------------
    total drift:                               -0.002697      0.003338     -0.000010


--------------------------------------------------------------------------------------------------------



  FREE ENERGIE OF THE ION-ELECTRON SYSTEM (eV)
  ---------------------------------------------------
  free  energy   TOTEN  =       -24.03232596 eV

  energy  without entropy=      -24.03296275  energy(sigma->0) =      -24.03253822
 
 d Force = 0.9439006E-05[ 0.338E-05, 0.155E-04]  d Energy = 0.1289145E-04-0.345E-05
 d Force = 0.3008626E-03[ 0.298E-03, 0.303E-03]  d Ewald  = 0.3008644E-03-0.177E-08


--------------------------------------------------------------------------------------------------------


    POTLOK:  cpu time    0.22: real time    0.23


--------------------------------------------------------------------------------------------------------


 stress matrix after NEB project (eV)
     -0.38435      0.00548      0.00370
      0.00548     -0.37233     -0.00203
      0.00370     -0.00203     -0.37706
  FORCES: max atom, RMS     0.009000    0.004964
  FORCE total and by dimension    0.011101    0.006474
  Stress total and by dimension    0.654699    0.384354
 Quasi-Newton relaxation of ions (Broydens 2nd method)
  g(Force)  = 0.594E-05   g(Stress)= 0.000E+00

 retain information from N=  2 steps
 eigenvalues of (default step * inverse Hessian matrix)
  average eigenvalue of G=  26.3025
 eigenvalue spectrum of G is  0.1409 52.4641


--------------------------------------------------------------------------------------------------------


  
 reached required accuracy - stopping structural energy minimisation
     LOOP+:  cpu time    2.87: real time    2.99
    4ORBIT:  cpu time    0.00: real time    0.00

 total amount of memory used by VASP on root node    57520. kBytes
========================================================================

   base      :      30000. kBytes
   nonlr-proj:        157. kBytes
   fftplans  :      10155. kBytes
   grid      :      16274. kBytes
   one-center:          3. kBytes
   wavefun   :        931. kBytes
 
  
  
 General timing and accounting informations for this job:
 ========================================================
  
                  Total CPU time used (sec):      262.776
                            User time (sec):      238.228
                          System time (sec):       24.548
                         Elapsed time (sec):      276.170
  
                   Maximum memory used (kb):      102904.
                   Average memory used (kb):           0.
  
                          Minor page faults:      5091010
                          Major page faults:           15
                 Voluntary context switches:         6083
