<?xml version="1.0" encoding="ISO-8859-1"?>
<modeling>
 <generator>
  <i name="program" type="string">vasp </i>
  <i name="version" type="string">5.3.2  </i>
  <i name="subversion" type="string">13Sep12 (build Oct  1 2014 13:46:58) complex                          parallel </i>
  <i name="platform" type="string">LinuxIFC </i>
  <i name="date" type="string">2015 11 22 </i>
  <i name="time" type="string">18:50:12 </i>
 </generator>
 <incar>
  <i type="int" name="ISTART">     0</i>
  <i type="string" name="PREC">med</i>
  <i type="string" name="ALGO"> Fast</i>
  <i type="int" name="ISPIN">     1</i>
  <i type="int" name="NELM">   400</i>
  <i type="int" name="NELMDL">   -10</i>
  <i type="int" name="IBRION">     1</i>
  <i type="int" name="NFREE">     2</i>
  <i name="EDIFF">      0.00000100</i>
  <i name="EDIFFG">     -0.01000000</i>
  <i type="int" name="NSW">   200</i>
  <i type="int" name="ISIF">     2</i>
  <i type="int" name="ISYM">     0</i>
  <i name="ENCUT">    400.00000000</i>
  <i name="POTIM">      0.50000000</i>
  <i type="string" name="LREAL"> auto</i>
  <v name="ROPT">     -0.00020000     -0.00020000</v>
  <i type="logical" name="LPLANE"> T  </i>
  <i type="int" name="ISMEAR">     1</i>
  <i name="SIGMA">      0.01000000</i>
  <i type="int" name="NWRITE">     1</i>
  <i type="logical" name="LWAVE"> F  </i>
  <i type="logical" name="LCHARG"> F  </i>
  <i type="logical" name="LVTOT"> F  </i>
  <i type="int" name="NELM">   400</i>
  <i type="int" name="VOSKOWN">     1</i>
 </incar>
 <kpoints>
  <generation param="Monkhorst-Pack">
   <v type="int" name="divisions">       1        1        1 </v>
   <v name="usershift">      0.00000000       0.00000000       0.00000000 </v>
   <v name="genvec1">      1.00000000       0.00000000       0.00000000 </v>
   <v name="genvec2">      0.00000000       1.00000000       0.00000000 </v>
   <v name="genvec3">      0.00000000       0.00000000       1.00000000 </v>
   <v name="shift">      0.00000000       0.00000000       0.00000000 </v>
  </generation>
  <varray name="kpointlist" >
   <v>       0.00000000       0.00000000       0.00000000 </v>
  </varray>
  <varray name="weights" >
   <v>       1.00000000 </v>
  </varray>
 </kpoints>
 <parameters>
  <separator name="general" >
   <i type="string" name="SYSTEM">unknown system</i>
   <i type="logical" name="LCOMPAT"> F  </i>
  </separator>
  <separator name="electronic" >
   <i type="string" name="PREC">med</i>
   <i name="ENMAX">    400.00000000</i>
   <i name="ENAUG">    644.87300000</i>
   <i name="EDIFF">      0.00000100</i>
   <i type="int" name="IALGO">    68</i>
   <i type="int" name="IWAVPR">    11</i>
   <i type="int" name="NBANDS">     8</i>
   <i name="NELECT">      8.00000000</i>
   <i type="int" name="TURBO">     0</i>
   <i type="int" name="IRESTART">     0</i>
   <i type="int" name="NREBOOT">     0</i>
   <i type="int" name="NMIN">     0</i>
   <i name="EREF">      0.00000000</i>
   <separator name="electronic smearing" >
    <i type="int" name="ISMEAR">     1</i>
    <i name="SIGMA">      0.01000000</i>
    <i name="KSPACING">      0.50000000</i>
    <i type="logical" name="KGAMMA"> T  </i>
   </separator>
   <separator name="electronic projectors" >
    <i type="logical" name="LREAL"> T  </i>
    <v name="ROPT">     -0.00020000     -0.00020000</v>
    <i type="int" name="LMAXPAW">  -100</i>
    <i type="int" name="LMAXMIX">     2</i>
    <i type="logical" name="NLSPLINE"> F  </i>
   </separator>
   <separator name="electronic startup" >
    <i type="int" name="ISTART">     0</i>
    <i type="int" name="ICHARG">     2</i>
    <i type="int" name="INIWAV">     1</i>
   </separator>
   <separator name="electronic spin" >
    <i type="int" name="ISPIN">     1</i>
    <i type="logical" name="LNONCOLLINEAR"> F  </i>
    <v name="MAGMOM">      1.00000000      1.00000000      1.00000000      1.00000000      1.00000000</v>
    <i name="NUPDOWN">     -1.00000000</i>
    <i type="logical" name="LSORBIT"> F  </i>
    <v name="SAXIS">      0.00000000      0.00000000      1.00000000</v>
    <i type="logical" name="LSPIRAL"> F  </i>
    <v name="QSPIRAL">      0.00000000      0.00000000      0.00000000</v>
    <i type="logical" name="LZEROZ"> F  </i>
   </separator>
   <separator name="electronic exchange-correlation" >
    <i type="logical" name="LASPH"> F  </i>
    <i type="logical" name="LMETAGGA"> F  </i>
   </separator>
   <separator name="electronic convergence" >
    <i type="int" name="NELM">   400</i>
    <i type="int" name="NELMDL">   -10</i>
    <i type="int" name="NELMIN">     2</i>
    <i name="ENINI">    400.00000000</i>
    <separator name="electronic convergence detail" >
     <i type="logical" name="LDIAG"> T  </i>
     <i type="logical" name="LSUBROT"> T  </i>
     <i name="WEIMIN">      0.00100000</i>
     <i name="EBREAK">      0.00000003</i>
     <i name="DEPER">      0.30000000</i>
     <i type="int" name="NRMM">     4</i>
     <i name="TIME">      0.40000000</i>
    </separator>
   </separator>
   <separator name="electronic mixer" >
    <i name="AMIX">      0.40000000</i>
    <i name="BMIX">      1.00000000</i>
    <i name="AMIN">      0.10000000</i>
    <i name="AMIX_MAG">      1.60000000</i>
    <i name="BMIX_MAG">      1.00000000</i>
    <separator name="electronic mixer details" >
     <i type="int" name="IMIX">     4</i>
     <i type="int" name="MAXMIX">   -45</i>
     <i name="WC">    100.00000000</i>
     <i type="int" name="INIMIX">     1</i>
     <i type="int" name="MIXPRE">     1</i>
     <i type="int" name="MREMOVE">     5</i>
    </separator>
   </separator>
   <separator name="electronic dipolcorrection" >
    <i type="logical" name="LDIPOL"> F  </i>
    <i type="logical" name="LMONO"> F  </i>
    <i type="int" name="IDIPOL">     0</i>
    <i name="EPSILON">      1.00000000</i>
    <v name="DIPOL">   -100.00000000   -100.00000000   -100.00000000</v>
    <i name="EFIELD">      0.00000000</i>
   </separator>
  </separator>
  <separator name="grids" >
   <i type="int" name="NGX">    98</i>
   <i type="int" name="NGY">    98</i>
   <i type="int" name="NGZ">    98</i>
   <i type="int" name="NGXF">   168</i>
   <i type="int" name="NGYF">   168</i>
   <i type="int" name="NGZF">   168</i>
   <i type="logical" name="ADDGRID"> F  </i>
  </separator>
  <separator name="ionic" >
   <i type="int" name="NSW">   200</i>
   <i type="int" name="IBRION">     1</i>
   <i type="int" name="ISIF">     2</i>
   <i name="PSTRESS">      0.00000000</i>
   <i name="EDIFFG">     -0.01000000</i>
   <i type="int" name="NFREE">     2</i>
   <i name="POTIM">      0.50000000</i>
   <i name="SMASS">     -3.00000000</i>
   <i name="SCALEE">      1.00000000</i>
  </separator>
  <separator name="ionic md" >
   <i name="TEBEG">      0.00010000</i>
   <i name="TEEND">      0.00010000</i>
   <i type="int" name="NBLOCK">     1</i>
   <i type="int" name="KBLOCK">   200</i>
   <i type="int" name="NPACO">   256</i>
   <i name="APACO">     16.00000000</i>
  </separator>
  <separator name="symmetry" >
   <i type="int" name="ISYM">     0</i>
   <i name="SYMPREC">      0.00001000</i>
  </separator>
  <separator name="dos" >
   <i type="logical" name="LORBIT"> F  </i>
   <v name="RWIGS">     -1.00000000     -1.00000000</v>
   <i type="int" name="NEDOS">   301</i>
   <i name="EMIN">     10.00000000</i>
   <i name="EMAX">    -10.00000000</i>
   <i name="EFERMI">      0.00000000</i>
  </separator>
  <separator name="writing" >
   <i type="int" name="NWRITE">     1</i>
   <i type="logical" name="LWAVE"> F  </i>
   <i type="logical" name="LCHARG"> F  </i>
   <i type="logical" name="LPARD"> F  </i>
   <i type="logical" name="LVTOT"> F  </i>
   <i type="logical" name="LVHAR"> F  </i>
   <i type="logical" name="LELF"> F  </i>
   <i type="logical" name="LOPTICS"> F  </i>
   <v name="STM">      0.00000000      0.00000000      0.00000000      0.00000000      0.00000000      0.00000000      0.00000000</v>
  </separator>
  <separator name="performance" >
   <i type="int" name="NPAR">     1</i>
   <i type="int" name="NSIM">     4</i>
   <i type="int" name="NBLK">    -1</i>
   <i type="logical" name="LPLANE"> T  </i>
   <i type="logical" name="LSCALAPACK"> F  </i>
   <i type="logical" name="LSCAAWARE"> F  </i>
   <i type="logical" name="LSCALU"> F  </i>
   <i type="logical" name="LASYNC"> F  </i>
   <i type="logical" name="LORBITALREAL"> F  </i>
  </separator>
  <separator name="miscellaneous" >
   <i type="int" name="IDIOT">     3</i>
   <i type="logical" name="LMUSIC"> F  </i>
   <v name="POMASS">     12.01100000      1.00000000</v>
   <v name="DARWINR">      0.00000000      0.00000000</v>
   <v name="DARWINV">      1.00000000      1.00000000</v>
   <i type="logical" name="LCORR"> T  </i>
  </separator>
  <i type="logical" name="GGA_COMPAT"> T  </i>
  <i type="logical" name="LBERRY"> F  </i>
  <i type="int" name="ICORELEVEL">     0</i>
  <i type="logical" name="LDAU"> F  </i>
  <i type="int" name="I_CONSTRAINED_M">     0</i>
  <separator name="electronic exchange-correlation" >
   <i type="string" name="GGA">--</i>
   <i type="int" name="VOSKOWN">     1</i>
   <i type="logical" name="LHFCALC"> F  </i>
   <i type="string" name="PRECFOCK"></i>
   <i type="logical" name="LSYMGRAD"> F  </i>
   <i type="logical" name="LHFONE"> F  </i>
   <i type="logical" name="LRHFCALC"> F  </i>
   <i type="logical" name="LTHOMAS"> F  </i>
   <i type="logical" name="LMODELHF"> F  </i>
   <i name="ENCUT4O">     -1.00000000</i>
   <i type="int" name="EXXOEP">     0</i>
   <i type="int" name="FOURORBIT">     0</i>
   <i name="AEXX">      0.00000000</i>
   <i name="HFALPHA">      0.00000000</i>
   <i name="MCALPHA">      0.00000000</i>
   <i name="ALDAX">      1.00000000</i>
   <i name="AGGAX">      1.00000000</i>
   <i name="ALDAC">      1.00000000</i>
   <i name="AGGAC">      1.00000000</i>
   <i type="int" name="NKREDX">     1</i>
   <i type="int" name="NKREDY">     1</i>
   <i type="int" name="NKREDZ">     1</i>
   <i type="logical" name="SHIFTRED"> F  </i>
   <i type="logical" name="ODDONLY"> F  </i>
   <i type="logical" name="EVENONLY"> F  </i>
   <i type="int" name="LMAXFOCK">     0</i>
   <i type="int" name="NMAXFOCKAE">     0</i>
   <i type="logical" name="LFOCKAEDFT"> F  </i>
   <i name="HFSCREEN">      0.00000000</i>
   <i name="HFSCREENC">      0.00000000</i>
   <i type="int" name="NBANDSGWLOW">     0</i>
  </separator>
  <separator name="vdW DFT" >
   <i type="logical" name="LUSE_VDW"> F  </i>
   <i name="Zab_VDW">     -0.84910000</i>
   <i name="PARAM1">      0.12340000</i>
   <i name="PARAM2">      1.00000000</i>
   <i name="PARAM3">      0.00000000</i>
  </separator>
  <separator name="model GW" >
   <i type="int" name="MODEL_GW">     0</i>
   <i name="MODEL_EPS0">    960.00000000</i>
   <i name="MODEL_ALPHA">      1.00000000</i>
  </separator>
  <separator name="linear response parameters" >
   <i type="logical" name="LEPSILON"> F  </i>
   <i type="logical" name="LRPA"> F  </i>
   <i type="logical" name="LNABLA"> F  </i>
   <i type="logical" name="LVEL"> F  </i>
   <i type="int" name="KINTER">     0</i>
   <i name="CSHIFT">      0.10000000</i>
   <i name="OMEGAMAX">     -1.00000000</i>
   <i name="DEG_THRESHOLD">      0.00200000</i>
  </separator>
  <separator name="orbital magnetization" >
   <i type="logical" name="NUCIND"> F  </i>
   <v name="MAGPOS">      0.00000000      0.00000000      0.00000000</v>
   <i type="logical" name="LNICSALL"> T  </i>
   <i type="logical" name="ORBITALMAG"> F  </i>
   <i type="logical" name="LMAGBLOCH"> F  </i>
   <i type="logical" name="LCHIMAG"> F  </i>
   <i type="logical" name="LGAUGE"> T  </i>
   <i type="int" name="MAGATOM">     0</i>
   <v name="MAGDIPOL">      0.00000000      0.00000000      0.00000000</v>
   <v name="AVECCONST">      0.00000000      0.00000000      0.00000000</v>
  </separator>
  <separator name="response functions" >
   <i type="logical" name="LADDER"> F  </i>
   <i type="logical" name="LHARTREE"> T  </i>
   <i type="int" name="IBSE">     0</i>
   <i type="logical" name="LTCTE"> F  </i>
   <i type="logical" name="LTETE"> F  </i>
   <i type="logical" name="LTRIPLET"> F  </i>
   <i type="logical" name="LFXCEPS"> F  </i>
   <i type="logical" name="L2ORDER"> F  </i>
   <i type="logical" name="LUSEW"> F  </i>
   <i name="ENCUTGW">     -2.00000000</i>
   <i name="ENCUTGWSOFT">     -2.00000000</i>
   <i name="ENCUTLF">     -1.00000000</i>
   <i type="int" name="LMAXMP2">    -1</i>
   <i name="SCISSOR">      0.00000000</i>
   <i type="int" name="NOMEGA">     0</i>
   <i type="int" name="NOMEGAR">     0</i>
   <i type="int" name="NBANDSGW">    -1</i>
   <i type="int" name="NBANDSO">    -1</i>
   <i type="int" name="NBANDSV">    -1</i>
   <i type="int" name="NELM">   400</i>
   <i type="int" name="DIM">     3</i>
   <i type="int" name="ANTIRES">     0</i>
   <i name="OMEGAMAX">    -30.00000000</i>
   <i name="OMEGATL">   -200.00000000</i>
   <i type="int" name="OMEGAGRID">     0</i>
   <i name="CSHIFT">     -0.10000000</i>
   <i type="logical" name="SELFENERGY"> F  </i>
   <i type="logical" name="LSPECTRAL"> F  </i>
   <i type="logical" name="ODDONLYGW"> F  </i>
   <i type="logical" name="EVENONLYGW"> F  </i>
   <i type="int" name="NKREDLFX">     1</i>
   <i type="int" name="NKREDLFY">     1</i>
   <i type="int" name="NKREDLFZ">     1</i>
   <i type="int" name="MAXMEM">  1800</i>
   <i type="int" name="TELESCOPE">     0</i>
  </separator>
 </parameters>
 <atominfo>
  <atoms>       5 </atoms>
  <types>       2 </types>
  <array name="atoms" >
   <dimension dim="1">ion</dimension>
   <field type="string">element</field>
   <field type="int">atomtype</field>
   <set>
    <rc><c>C </c><c>   1</c></rc>
    <rc><c>H </c><c>   2</c></rc>
    <rc><c>H </c><c>   2</c></rc>
    <rc><c>H </c><c>   2</c></rc>
    <rc><c>H </c><c>   2</c></rc>
   </set>
  </array>
  <array name="atomtypes" >
   <dimension dim="1">type</dimension>
   <field type="int">atomspertype</field>
   <field type="string">element</field>
   <field>mass</field>
   <field>valence</field>
   <field type="string">pseudopotential</field>
   <set>
    <rc><c>   1</c><c>C </c><c>     12.01100000</c><c>      4.00000000</c><c>  PAW_PBE C 08Apr2002                   </c></rc>
    <rc><c>   4</c><c>H </c><c>      1.00000000</c><c>      1.00000000</c><c>  PAW_PBE H 15Jun2001                   </c></rc>
   </set>
  </array>
 </atominfo>
 <structure name="initialpos" >
  <crystal>
   <varray name="basis" >
    <v>      16.32993162      -8.16496581      -8.16496581 </v>
    <v>       0.00000000      14.14213562     -14.14213562 </v>
    <v>      11.54700538      11.54700538      11.54700538 </v>
   </varray>
   <i name="volume">   8000.00000000 </i>
   <varray name="rec_basis" >
    <v>       0.04082483      -0.02041241      -0.02041241 </v>
    <v>       0.00000000       0.03535534      -0.03535534 </v>
    <v>       0.02886751       0.02886751       0.02886751 </v>
   </varray>
  </crystal>
  <varray name="positions" >
   <v>       0.35002533       0.54810021       0.51972919 </v>
   <v>       0.34133978       0.60224353       0.52048999 </v>
   <v>       0.39238969       0.53689956       0.48671368 </v>
   <v>       0.30508899       0.52263266       0.50128445 </v>
   <v>       0.36140342       0.53058472       0.57046382 </v>
  </varray>
  <varray name="selective"  type="logical" >
   <v type="logical" >  T  T  T </v>
   <v type="logical" >  T  T  T </v>
   <v type="logical" >  T  T  T </v>
   <v type="logical" >  T  T  T </v>
   <v type="logical" >  T  T  T </v>
  </varray>
  <nose>
   <v>      -3.00000000       0.00000000       0.00010000       0.00010000 </v>
  </nose>
 </structure>
 <calculation>
  <scstep>
   <time name="dav">    0.24    0.26</time>
   <time name="total">    0.47    0.50</time>
   <energy>
    <i name="alphaZ">      0.03028135 </i>
    <i name="ewald">    193.00788834 </i>
    <i name="hartreedc">   -306.57981985 </i>
    <i name="XCdc">     22.00846247 </i>
    <i name="pawpsdc">    117.05815612 </i>
    <i name="pawaedc">   -117.66307307 </i>
    <i name="eentropy">      0.00057979 </i>
    <i name="bandstr">    -81.22518388 </i>
    <i name="atom">    197.04175453 </i>
    <i name="e_fr_energy">     23.67904581 </i>
    <i name="e_wo_entrp">     23.67846602 </i>
    <i name="e_0_energy">     23.67885255 </i>
   </energy>
  </scstep>
  <scstep>
   <time name="dav">    0.14    0.14</time>
   <time name="total">    0.14    0.17</time>
   <energy>
    <i name="e_fr_energy">    -17.25173512 </i>
    <i name="e_wo_entrp">    -17.25231491 </i>
    <i name="e_0_energy">    -17.25192839 </i>
   </energy>
  </scstep>
  <scstep>
   <time name="dav">    0.13    0.13</time>
   <time name="total">    0.13    0.16</time>
   <energy>
    <i name="e_fr_energy">    -26.94899669 </i>
    <i name="e_wo_entrp">    -26.94957648 </i>
    <i name="e_0_energy">    -26.94918995 </i>
   </energy>
  </scstep>
  <scstep>
   <time name="dav">    0.23    0.23</time>
   <time name="total">    0.23    0.25</time>
   <energy>
    <i name="e_fr_energy">    -27.55437089 </i>
    <i name="e_wo_entrp">    -27.55437089 </i>
    <i name="e_0_energy">    -27.55437089 </i>
   </energy>
  </scstep>
  <scstep>
   <time name="dav">    0.23    0.23</time>
   <time name="total">    0.23    0.25</time>
   <energy>
    <i name="e_fr_energy">    -27.55436433 </i>
    <i name="e_wo_entrp">    -27.55498361 </i>
    <i name="e_0_energy">    -27.55457076 </i>
   </energy>
  </scstep>
  <scstep>
   <time name="dav">    0.23    0.23</time>
   <time name="total">    0.23    0.25</time>
   <energy>
    <i name="e_fr_energy">    -27.55494781 </i>
    <i name="e_wo_entrp">    -27.55494781 </i>
    <i name="e_0_energy">    -27.55494781 </i>
   </energy>
  </scstep>
  <scstep>
   <time name="dav">    0.23    0.23</time>
   <time name="total">    0.23    0.25</time>
   <energy>
    <i name="e_fr_energy">    -27.55436438 </i>
    <i name="e_wo_entrp">    -27.55498366 </i>
    <i name="e_0_energy">    -27.55457081 </i>
   </energy>
  </scstep>
  <scstep>
   <time name="dav">    0.23    0.23</time>
   <time name="total">    0.23    0.25</time>
   <energy>
    <i name="e_fr_energy">    -27.55436438 </i>
    <i name="e_wo_entrp">    -27.55498366 </i>
    <i name="e_0_energy">    -27.55457081 </i>
   </energy>
  </scstep>
  <scstep>
   <time name="dav">    0.23    0.23</time>
   <time name="total">    0.23    0.25</time>
   <energy>
    <i name="e_fr_energy">    -27.55436438 </i>
    <i name="e_wo_entrp">    -27.55498366 </i>
    <i name="e_0_energy">    -27.55457081 </i>
   </energy>
  </scstep>
  <scstep>
   <time name="dav">    0.23    0.23</time>
   <time name="total">    0.31    0.33</time>
   <energy>
    <i name="e_fr_energy">    -27.55436438 </i>
    <i name="e_wo_entrp">    -27.55498366 </i>
    <i name="e_0_energy">    -27.55457081 </i>
   </energy>
  </scstep>
  <scstep>
   <time name="diag">    0.02    0.02</time>
   <time name="diis">    0.11    0.11</time>
   <time name="orth">    0.00    0.00</time>
   <time name="total">    0.38    0.40</time>
   <energy>
    <i name="e_fr_energy">    -24.66235773 </i>
    <i name="e_wo_entrp">    -24.66301354 </i>
    <i name="e_0_energy">    -24.66257633 </i>
   </energy>
  </scstep>
  <scstep>
   <time name="diag">    0.02    0.02</time>
   <time name="diis">    0.11    0.11</time>
   <time name="orth">    0.00    0.00</time>
   <time name="total">    0.37    0.39</time>
   <energy>
    <i name="e_fr_energy">    -24.17785287 </i>
    <i name="e_wo_entrp">    -24.17785287 </i>
    <i name="e_0_energy">    -24.17785287 </i>
   </energy>
  </scstep>
  <scstep>
   <time name="diag">    0.02    0.02</time>
   <time name="diis">    0.11    0.11</time>
   <time name="orth">    0.00    0.00</time>
   <time name="total">    0.38    0.40</time>
   <energy>
    <i name="e_fr_energy">    -24.02882841 </i>
    <i name="e_wo_entrp">    -24.02948939 </i>
    <i name="e_0_energy">    -24.02904873 </i>
   </energy>
  </scstep>
  <scstep>
   <time name="diag">    0.02    0.02</time>
   <time name="diis">    0.11    0.11</time>
   <time name="orth">    0.00    0.00</time>
   <time name="total">    0.38    0.40</time>
   <energy>
    <i name="e_fr_energy">    -24.02404966 </i>
    <i name="e_wo_entrp">    -24.02478295 </i>
    <i name="e_0_energy">    -24.02429409 </i>
   </energy>
  </scstep>
  <scstep>
   <time name="diag">    0.02    0.02</time>
   <time name="diis">    0.11    0.11</time>
   <time name="orth">    0.00    0.00</time>
   <time name="total">    0.38    0.40</time>
   <energy>
    <i name="e_fr_energy">    -24.01810764 </i>
    <i name="e_wo_entrp">    -24.01957148 </i>
    <i name="e_0_energy">    -24.01859559 </i>
   </energy>
  </scstep>
  <scstep>
   <time name="diag">    0.02    0.02</time>
   <time name="diis">    0.11    0.11</time>
   <time name="orth">    0.00    0.00</time>
   <time name="total">    0.38    0.41</time>
   <energy>
    <i name="e_fr_energy">    -24.01776356 </i>
    <i name="e_wo_entrp">    -24.01936621 </i>
    <i name="e_0_energy">    -24.01829778 </i>
   </energy>
  </scstep>
  <scstep>
   <time name="diag">    0.02    0.02</time>
   <time name="diis">    0.11    0.11</time>
   <time name="orth">    0.00    0.00</time>
   <time name="total">    0.39    0.41</time>
   <energy>
    <i name="e_fr_energy">    -24.01735352 </i>
    <i name="e_wo_entrp">    -24.01843258 </i>
    <i name="e_0_energy">    -24.01771321 </i>
   </energy>
  </scstep>
  <scstep>
   <time name="diag">    0.02    0.02</time>
   <time name="diis">    0.11    0.11</time>
   <time name="orth">    0.00    0.00</time>
   <time name="total">    0.38    0.41</time>
   <energy>
    <i name="e_fr_energy">    -24.01721714 </i>
    <i name="e_wo_entrp">    -24.01834566 </i>
    <i name="e_0_energy">    -24.01759331 </i>
   </energy>
  </scstep>
  <scstep>
   <time name="diag">    0.02    0.02</time>
   <time name="diis">    0.12    0.12</time>
   <time name="orth">    0.00    0.00</time>
   <time name="total">    0.39    0.42</time>
   <energy>
    <i name="e_fr_energy">    -24.01729727 </i>
    <i name="e_wo_entrp">    -24.01849580 </i>
    <i name="e_0_energy">    -24.01769678 </i>
   </energy>
  </scstep>
  <scstep>
   <time name="diag">    0.02    0.02</time>
   <time name="diis">    0.12    0.12</time>
   <time name="orth">    0.00    0.00</time>
   <time name="total">    0.39    0.42</time>
   <energy>
    <i name="e_fr_energy">    -24.01768352 </i>
    <i name="e_wo_entrp">    -24.01865571 </i>
    <i name="e_0_energy">    -24.01800758 </i>
   </energy>
  </scstep>
  <scstep>
   <time name="diag">    0.02    0.02</time>
   <time name="diis">    0.12    0.12</time>
   <time name="orth">    0.00    0.00</time>
   <time name="total">    0.40    0.42</time>
   <energy>
    <i name="e_fr_energy">    -24.02455965 </i>
    <i name="e_wo_entrp">    -24.02527907 </i>
    <i name="e_0_energy">    -24.02479946 </i>
   </energy>
  </scstep>
  <scstep>
   <time name="diag">    0.02    0.02</time>
   <time name="diis">    0.12    0.12</time>
   <time name="orth">    0.00    0.00</time>
   <time name="total">    0.40    0.42</time>
   <energy>
    <i name="e_fr_energy">    -24.02597964 </i>
    <i name="e_wo_entrp">    -24.02667278 </i>
    <i name="e_0_energy">    -24.02621069 </i>
   </energy>
  </scstep>
  <scstep>
   <time name="diag">    0.03    0.02</time>
   <time name="diis">    0.12    0.12</time>
   <time name="orth">    0.00    0.00</time>
   <time name="total">    0.41    0.43</time>
   <energy>
    <i name="e_fr_energy">    -24.02980062 </i>
    <i name="e_wo_entrp">    -24.02980062 </i>
    <i name="e_0_energy">    -24.02980062 </i>
   </energy>
  </scstep>
  <scstep>
   <time name="diag">    0.02    0.02</time>
   <time name="diis">    0.12    0.13</time>
   <time name="orth">    0.00    0.00</time>
   <time name="total">    0.41    0.43</time>
   <energy>
    <i name="e_fr_energy">    -24.02957299 </i>
    <i name="e_wo_entrp">    -24.03018479 </i>
    <i name="e_0_energy">    -24.02977692 </i>
   </energy>
  </scstep>
  <scstep>
   <time name="diag">    0.02    0.02</time>
   <time name="diis">    0.13    0.13</time>
   <time name="orth">    0.00    0.00</time>
   <time name="total">    0.41    0.44</time>
   <energy>
    <i name="e_fr_energy">    -24.03005359 </i>
    <i name="e_wo_entrp">    -24.03065135 </i>
    <i name="e_0_energy">    -24.03025284 </i>
   </energy>
  </scstep>
  <scstep>
   <time name="diag">    0.02    0.02</time>
   <time name="diis">    0.13    0.13</time>
   <time name="orth">    0.00    0.00</time>
   <time name="total">    0.41    0.44</time>
   <energy>
    <i name="e_fr_energy">    -24.03020320 </i>
    <i name="e_wo_entrp">    -24.03079240 </i>
    <i name="e_0_energy">    -24.03039960 </i>
   </energy>
  </scstep>
  <scstep>
   <time name="diag">    0.02    0.02</time>
   <time name="diis">    0.13    0.13</time>
   <time name="orth">    0.00    0.00</time>
   <time name="total">    0.41    0.44</time>
   <energy>
    <i name="e_fr_energy">    -24.03027778 </i>
    <i name="e_wo_entrp">    -24.03086236 </i>
    <i name="e_0_energy">    -24.03047264 </i>
   </energy>
  </scstep>
  <scstep>
   <time name="diag">    0.02    0.02</time>
   <time name="diis">    0.13    0.13</time>
   <time name="orth">    0.00    0.00</time>
   <time name="total">    0.42    0.44</time>
   <energy>
    <i name="e_fr_energy">    -24.03032513 </i>
    <i name="e_wo_entrp">    -24.03090711 </i>
    <i name="e_0_energy">    -24.03051912 </i>
   </energy>
  </scstep>
  <scstep>
   <time name="diag">    0.02    0.02</time>
   <time name="diis">    0.10    0.10</time>
   <time name="orth">    0.00    0.00</time>
   <time name="total">    0.39    0.42</time>
   <energy>
    <i name="e_fr_energy">    -24.03033372 </i>
    <i name="e_wo_entrp">    -24.03091525 </i>
    <i name="e_0_energy">    -24.03052756 </i>
   </energy>
  </scstep>
  <scstep>
   <time name="diag">    0.02    0.02</time>
   <time name="diis">    0.10    0.10</time>
   <time name="orth">    0.00    0.00</time>
   <time name="total">    0.40    0.42</time>
   <energy>
    <i name="e_fr_energy">    -24.03034116 </i>
    <i name="e_wo_entrp">    -24.03092228 </i>
    <i name="e_0_energy">    -24.03053487 </i>
   </energy>
  </scstep>
  <scstep>
   <time name="diag">    0.02    0.02</time>
   <time name="diis">    0.13    0.13</time>
   <time name="orth">    0.00    0.00</time>
   <time name="total">    0.43    0.45</time>
   <energy>
    <i name="e_fr_energy">    -24.03030968 </i>
    <i name="e_wo_entrp">    -24.03089647 </i>
    <i name="e_0_energy">    -24.03050528 </i>
   </energy>
  </scstep>
  <scstep>
   <time name="diag">    0.02    0.02</time>
   <time name="diis">    0.10    0.10</time>
   <time name="orth">    0.00    0.00</time>
   <time name="total">    0.41    0.43</time>
   <energy>
    <i name="e_fr_energy">    -24.03030733 </i>
    <i name="e_wo_entrp">    -24.03089498 </i>
    <i name="e_0_energy">    -24.03050322 </i>
   </energy>
  </scstep>
  <scstep>
   <time name="diag">    0.02    0.02</time>
   <time name="diis">    0.10    0.10</time>
   <time name="orth">    0.00    0.00</time>
   <time name="total">    0.41    0.44</time>
   <energy>
    <i name="e_fr_energy">    -24.03031412 </i>
    <i name="e_wo_entrp">    -24.03090237 </i>
    <i name="e_0_energy">    -24.03051020 </i>
   </energy>
  </scstep>
  <scstep>
   <time name="diag">    0.02    0.02</time>
   <time name="diis">    0.13    0.13</time>
   <time name="orth">    0.00    0.00</time>
   <time name="total">    0.45    0.47</time>
   <energy>
    <i name="e_fr_energy">    -24.03030523 </i>
    <i name="e_wo_entrp">    -24.03093149 </i>
    <i name="e_0_energy">    -24.03051398 </i>
   </energy>
  </scstep>
  <scstep>
   <time name="diag">    0.02    0.02</time>
   <time name="diis">    0.12    0.12</time>
   <time name="orth">    0.00    0.00</time>
   <time name="total">    0.44    0.47</time>
   <energy>
    <i name="e_fr_energy">    -24.03030291 </i>
    <i name="e_wo_entrp">    -24.03095956 </i>
    <i name="e_0_energy">    -24.03052180 </i>
   </energy>
  </scstep>
  <scstep>
   <time name="diag">    0.02    0.02</time>
   <time name="diis">    0.10    0.10</time>
   <time name="orth">    0.00    0.00</time>
   <time name="total">    0.43    0.45</time>
   <energy>
    <i name="e_fr_energy">    -24.03029853 </i>
    <i name="e_wo_entrp">    -24.03095606 </i>
    <i name="e_0_energy">    -24.03051771 </i>
   </energy>
  </scstep>
  <scstep>
   <time name="diag">    0.02    0.02</time>
   <time name="diis">    0.10    0.10</time>
   <time name="orth">    0.00    0.00</time>
   <time name="total">    0.44    0.46</time>
   <energy>
    <i name="e_fr_energy">    -24.03029350 </i>
    <i name="e_wo_entrp">    -24.03097514 </i>
    <i name="e_0_energy">    -24.03052071 </i>
   </energy>
  </scstep>
  <scstep>
   <time name="diag">    0.02    0.02</time>
   <time name="diis">    0.10    0.10</time>
   <time name="orth">    0.00    0.00</time>
   <time name="total">    0.44    0.47</time>
   <energy>
    <i name="e_fr_energy">    -24.03029085 </i>
    <i name="e_wo_entrp">    -24.03097954 </i>
    <i name="e_0_energy">    -24.03052041 </i>
   </energy>
  </scstep>
  <scstep>
   <time name="diag">    0.02    0.02</time>
   <time name="diis">    0.10    0.10</time>
   <time name="orth">    0.00    0.00</time>
   <time name="total">    0.45    0.47</time>
   <energy>
    <i name="e_fr_energy">    -24.03028891 </i>
    <i name="e_wo_entrp">    -24.03098394 </i>
    <i name="e_0_energy">    -24.03052059 </i>
   </energy>
  </scstep>
  <scstep>
   <time name="diag">    0.02    0.02</time>
   <time name="diis">    0.10    0.10</time>
   <time name="orth">    0.00    0.00</time>
   <time name="total">    0.45    0.48</time>
   <energy>
    <i name="e_fr_energy">    -24.03028713 </i>
    <i name="e_wo_entrp">    -24.03098363 </i>
    <i name="e_0_energy">    -24.03051930 </i>
   </energy>
  </scstep>
  <scstep>
   <time name="diag">    0.02    0.02</time>
   <time name="diis">    0.11    0.10</time>
   <time name="orth">    0.00    0.00</time>
   <time name="total">    0.35    0.38</time>
   <energy>
    <i name="alphaZ">      0.03028135 </i>
    <i name="ewald">    193.00788834 </i>
    <i name="hartreedc">   -347.72274127 </i>
    <i name="XCdc">     24.74150854 </i>
    <i name="pawpsdc">    466.48220517 </i>
    <i name="pawaedc">   -467.26989592 </i>
    <i name="eentropy">      0.00068393 </i>
    <i name="bandstr">    -90.34197222 </i>
    <i name="atom">    197.04175453 </i>
    <i name="e_fr_energy">    -24.03028754 </i>
    <i name="e_wo_entrp">    -24.03097147 </i>
    <i name="e_0_energy">    -24.03051551 </i>
   </energy>
  </scstep>
  <structure>
   <crystal>
    <varray name="basis" >
     <v>      16.32993162      -8.16496581      -8.16496581 </v>
     <v>       0.00000000      14.14213562     -14.14213562 </v>
     <v>      11.54700538      11.54700538      11.54700538 </v>
    </varray>
    <i name="volume">   8000.00000000 </i>
    <varray name="rec_basis" >
     <v>       0.04082483      -0.02041241      -0.02041241 </v>
     <v>       0.00000000       0.03535534      -0.03535534 </v>
     <v>       0.02886751       0.02886751       0.02886751 </v>
    </varray>
   </crystal>
   <varray name="positions" >
    <v>       0.35002533       0.54810021       0.51972919 </v>
    <v>       0.34133978       0.60224353       0.52048999 </v>
    <v>       0.39238969       0.53689956       0.48671368 </v>
    <v>       0.30508899       0.52263266       0.50128445 </v>
    <v>       0.36140342       0.53058472       0.57046382 </v>
   </varray>
  </structure>
  <varray name="forces" >
   <v>      -0.00502097      -0.03846105       0.01237029 </v>
   <v>      -0.00766715       0.01081196      -0.01817246 </v>
   <v>       0.01317674       0.01442198      -0.00502465 </v>
   <v>      -0.00101662       0.01794272       0.00563032 </v>
   <v>       0.00052801      -0.00471562       0.00519650 </v>
  </varray>
  <varray name="stress" >
   <v>      -0.08124680       0.00113142      -0.00124363 </v>
   <v>       0.00113142      -0.07606542      -0.00319043 </v>
   <v>      -0.00124363      -0.00319043      -0.08001748 </v>
  </varray>
  <energy>
   <i name="e_fr_energy">    -24.03233310 </i>
   <i name="e_wo_entrp">    -24.03256108 </i>
   <i name="e_0_energy">      0.00068393 </i>
  </energy>
  <time name="totalsc">   15.98   17.03</time>
 </calculation>
 <calculation>
  <scstep>
   <time name="dav">    0.21    0.22</time>
   <time name="total">    0.78    0.79</time>
   <energy>
    <i name="alphaZ">      0.03028135 </i>
    <i name="ewald">    192.95611848 </i>
    <i name="hartreedc">   -347.69257417 </i>
    <i name="XCdc">     24.74000001 </i>
    <i name="pawpsdc">    466.47935493 </i>
    <i name="pawaedc">   -467.26704898 </i>
    <i name="eentropy">      0.00058024 </i>
    <i name="bandstr">    -90.31857433 </i>
    <i name="atom">    197.04175453 </i>
    <i name="e_fr_energy">    -24.03010795 </i>
    <i name="e_wo_entrp">    -24.03068819 </i>
    <i name="e_0_energy">    -24.03011241 </i>
   </energy>
  </scstep>
  <scstep>
   <time name="diag">    0.02    0.02</time>
   <time name="diis">    0.12    0.12</time>
   <time name="orth">    0.00    0.00</time>
   <time name="total">    0.39    0.41</time>
   <energy>
    <i name="e_fr_energy">    -24.03009528 </i>
    <i name="e_wo_entrp">    -24.03068261 </i>
    <i name="e_0_energy">    -24.03009980 </i>
   </energy>
  </scstep>
  <scstep>
   <time name="diag">    0.02    0.02</time>
   <time name="diis">    0.12    0.12</time>
   <time name="orth">    0.00    0.00</time>
   <time name="total">    0.39    0.41</time>
   <energy>
    <i name="e_fr_energy">    -24.03007680 </i>
    <i name="e_wo_entrp">    -24.03074531 </i>
    <i name="e_0_energy">    -24.03008194 </i>
   </energy>
  </scstep>
  <scstep>
   <time name="diag">    0.02    0.02</time>
   <time name="diis">    0.10    0.10</time>
   <time name="orth">    0.00    0.00</time>
   <time name="total">    0.37    0.39</time>
   <energy>
    <i name="e_fr_energy">    -24.03007439 </i>
    <i name="e_wo_entrp">    -24.03073370 </i>
    <i name="e_0_energy">    -24.03007947 </i>
   </energy>
  </scstep>
  <scstep>
   <time name="diag">    0.02    0.02</time>
   <time name="diis">    0.12    0.12</time>
   <time name="orth">    0.00    0.00</time>
   <time name="total">    0.40    0.42</time>
   <energy>
    <i name="e_fr_energy">    -24.03008823 </i>
    <i name="e_wo_entrp">    -24.03067944 </i>
    <i name="e_0_energy">    -24.03009278 </i>
   </energy>
  </scstep>
  <scstep>
   <time name="diag">    0.02    0.02</time>
   <time name="diis">    0.10    0.10</time>
   <time name="orth">    0.00    0.00</time>
   <time name="total">    0.38    0.40</time>
   <energy>
    <i name="e_fr_energy">    -24.03009675 </i>
    <i name="e_wo_entrp">    -24.03068461 </i>
    <i name="e_0_energy">    -24.03010127 </i>
   </energy>
  </scstep>
  <scstep>
   <time name="diag">    0.02    0.02</time>
   <time name="diis">    0.11    0.11</time>
   <time name="orth">    0.00    0.00</time>
   <time name="total">    0.39    0.41</time>
   <energy>
    <i name="e_fr_energy">    -24.03010085 </i>
    <i name="e_wo_entrp">    -24.03068436 </i>
    <i name="e_0_energy">    -24.03010534 </i>
   </energy>
  </scstep>
  <scstep>
   <time name="diag">    0.02    0.02</time>
   <time name="diis">    0.10    0.10</time>
   <time name="orth">    0.00    0.00</time>
   <time name="total">    0.34    0.37</time>
   <energy>
    <i name="alphaZ">      0.03028135 </i>
    <i name="ewald">    192.95611848 </i>
    <i name="hartreedc">   -347.66147430 </i>
    <i name="XCdc">     24.73839157 </i>
    <i name="pawpsdc">    466.19836325 </i>
    <i name="pawaedc">   -466.98569268 </i>
    <i name="eentropy">      0.00058326 </i>
    <i name="bandstr">    -90.34842703 </i>
    <i name="atom">    197.04175453 </i>
    <i name="e_fr_energy">    -24.03010157 </i>
    <i name="e_wo_entrp">    -24.03068483 </i>
    <i name="e_0_energy">    -24.03010606 </i>
   </energy>
  </scstep>
  <structure>
   <crystal>
    <varray name="basis" >
     <v>      16.32993162      -8.16496581      -8.16496581 </v>
     <v>       0.00000000      14.14213562     -14.14213562 </v>
     <v>      11.54700538      11.54700538      11.54700538 </v>
    </varray>
    <i name="volume">   8000.00000000 </i>
    <varray name="rec_basis" >
     <v>       0.04082483      -0.02041241      -0.02041241 </v>
     <v>       0.00000000       0.03535534      -0.03535534 </v>
     <v>       0.02886751       0.02886751       0.02886751 </v>
    </varray>
   </crystal>
   <varray name="positions" >
    <v>       0.35004113       0.54801351       0.51968586 </v>
    <v>       0.34133193       0.60229297       0.52046906 </v>
    <v>       0.39240639       0.53693273       0.48674512 </v>
    <v>       0.30506377       0.52265367       0.50131586 </v>
    <v>       0.36140398       0.53056781       0.57046523 </v>
   </varray>
  </structure>
  <varray name="forces" >
   <v>       0.03403047       0.11745374      -0.03366276 </v>
   <v>       0.01291442      -0.05188496       0.05054564 </v>
   <v>      -0.00584339      -0.04240991      -0.01074015 </v>
   <v>      -0.02760206      -0.02488852       0.00753859 </v>
   <v>      -0.01349944       0.00172965      -0.01368131 </v>
  </varray>
  <varray name="stress" >
   <v>      -0.07662675       0.00414334      -0.00782498 </v>
   <v>       0.00414334      -0.07496833       0.00873037 </v>
   <v>      -0.00782498       0.00873037      -0.08521643 </v>
  </varray>
  <energy>
   <i name="e_fr_energy">    -24.03215042 </i>
   <i name="e_wo_entrp">    -24.03234484 </i>
   <i name="e_0_energy">      0.00058326 </i>
  </energy>
  <time name="totalsc">    4.24    4.53</time>
 </calculation>
 <calculation>
  <scstep>
   <time name="dav">    0.25    0.25</time>
   <time name="total">    0.50    0.51</time>
   <energy>
    <i name="alphaZ">      0.03028135 </i>
    <i name="ewald">    192.97087068 </i>
    <i name="hartreedc">   -347.66884103 </i>
    <i name="XCdc">     24.73877343 </i>
    <i name="pawpsdc">    466.20416005 </i>
    <i name="pawaedc">   -466.99146901 </i>
    <i name="eentropy">      0.00058731 </i>
    <i name="bandstr">    -90.35639173 </i>
    <i name="atom">    197.04175453 </i>
    <i name="e_fr_energy">    -24.03027443 </i>
    <i name="e_wo_entrp">    -24.03086174 </i>
    <i name="e_0_energy">    -24.03027895 </i>
   </energy>
  </scstep>
  <scstep>
   <time name="diag">    0.02    0.02</time>
   <time name="diis">    0.12    0.12</time>
   <time name="orth">    0.00    0.00</time>
   <time name="total">    0.39    0.41</time>
   <energy>
    <i name="e_fr_energy">    -24.03026711 </i>
    <i name="e_wo_entrp">    -24.03085290 </i>
    <i name="e_0_energy">    -24.03027161 </i>
   </energy>
  </scstep>
  <scstep>
   <time name="diag">    0.02    0.02</time>
   <time name="diis">    0.12    0.12</time>
   <time name="orth">    0.00    0.00</time>
   <time name="total">    0.39    0.41</time>
   <energy>
    <i name="e_fr_energy">    -24.03026013 </i>
    <i name="e_wo_entrp">    -24.03085500 </i>
    <i name="e_0_energy">    -24.03026470 </i>
   </energy>
  </scstep>
  <scstep>
   <time name="diag">    0.02    0.02</time>
   <time name="diis">    0.10    0.10</time>
   <time name="orth">    0.00    0.00</time>
   <time name="total">    0.34    0.36</time>
   <energy>
    <i name="alphaZ">      0.03028135 </i>
    <i name="ewald">    192.97087068 </i>
    <i name="hartreedc">   -347.66703359 </i>
    <i name="XCdc">     24.73876333 </i>
    <i name="pawpsdc">    466.31253506 </i>
    <i name="pawaedc">   -467.09982048 </i>
    <i name="eentropy">      0.00059991 </i>
    <i name="bandstr">    -90.35821068 </i>
    <i name="atom">    197.04175453 </i>
    <i name="e_fr_energy">    -24.03025990 </i>
    <i name="e_wo_entrp">    -24.03085981 </i>
    <i name="e_0_energy">    -24.03026452 </i>
   </energy>
  </scstep>
  <structure>
   <crystal>
    <varray name="basis" >
     <v>      16.32993162      -8.16496581      -8.16496581 </v>
     <v>       0.00000000      14.14213562     -14.14213562 </v>
     <v>      11.54700538      11.54700538      11.54700538 </v>
    </varray>
    <i name="volume">   8000.00000000 </i>
    <varray name="rec_basis" >
     <v>       0.04082483      -0.02041241      -0.02041241 </v>
     <v>       0.00000000       0.03535534      -0.03535534 </v>
     <v>       0.02886751       0.02886751       0.02886751 </v>
    </varray>
   </crystal>
   <varray name="positions" >
    <v>       0.35003733       0.54807681       0.51972615 </v>
    <v>       0.34133850       0.60225006       0.52047302 </v>
    <v>       0.39241642       0.53691947       0.48672494 </v>
    <v>       0.30505462       0.52264008       0.50130049 </v>
    <v>       0.36140034       0.53057427       0.57045653 </v>
   </varray>
  </structure>
  <varray name="forces" >
   <v>       0.00283982       0.01842304      -0.00867466 </v>
   <v>       0.00481664      -0.00713369       0.01211933 </v>
   <v>      -0.01185958      -0.00618132       0.00619182 </v>
   <v>       0.00442576      -0.01098451      -0.00843419 </v>
   <v>      -0.00022265       0.00587648      -0.00120229 </v>
  </varray>
  <varray name="stress" >
   <v>      -0.07802756       0.00324626       0.00115084 </v>
   <v>       0.00324626      -0.07454914       0.00160018 </v>
   <v>       0.00115084       0.00160018      -0.07882206 </v>
  </varray>
  <energy>
   <i name="e_fr_energy">    -24.03230781 </i>
   <i name="e_wo_entrp">    -24.03250778 </i>
   <i name="e_0_energy">      0.00059991 </i>
  </energy>
  <time name="totalsc">    2.42    2.61</time>
 </calculation>
 <calculation>
  <scstep>
   <time name="dav">    0.24    0.24</time>
   <time name="total">    0.49    0.50</time>
   <energy>
    <i name="alphaZ">      0.03028135 </i>
    <i name="ewald">    192.99554449 </i>
    <i name="hartreedc">   -347.68147926 </i>
    <i name="XCdc">     24.73947007 </i>
    <i name="pawpsdc">    466.21907018 </i>
    <i name="pawaedc">   -467.00636281 </i>
    <i name="eentropy">      0.00065801 </i>
    <i name="bandstr">    -90.36920553 </i>
    <i name="atom">    197.04175453 </i>
    <i name="e_fr_energy">    -24.03026897 </i>
    <i name="e_wo_entrp">    -24.03092698 </i>
    <i name="e_0_energy">    -24.03027403 </i>
   </energy>
  </scstep>
  <scstep>
   <time name="diag">    0.02    0.02</time>
   <time name="diis">    0.11    0.11</time>
   <time name="orth">    0.00    0.00</time>
   <time name="total">    0.39    0.41</time>
   <energy>
    <i name="e_fr_energy">    -24.03026229 </i>
    <i name="e_wo_entrp">    -24.03097552 </i>
    <i name="e_0_energy">    -24.03026777 </i>
   </energy>
  </scstep>
  <scstep>
   <time name="diag">    0.02    0.02</time>
   <time name="diis">    0.12    0.12</time>
   <time name="orth">    0.00    0.00</time>
   <time name="total">    0.39    0.41</time>
   <energy>
    <i name="e_fr_energy">    -24.03026520 </i>
    <i name="e_wo_entrp">    -24.03090187 </i>
    <i name="e_0_energy">    -24.03027010 </i>
   </energy>
  </scstep>
  <scstep>
   <time name="diag">    0.02    0.02</time>
   <time name="diis">    0.12    0.12</time>
   <time name="orth">    0.00    0.00</time>
   <time name="total">    0.39    0.41</time>
   <energy>
    <i name="e_fr_energy">    -24.03027307 </i>
    <i name="e_wo_entrp">    -24.03088360 </i>
    <i name="e_0_energy">    -24.03027777 </i>
   </energy>
  </scstep>
  <scstep>
   <time name="diag">    0.02    0.02</time>
   <time name="diis">    0.12    0.12</time>
   <time name="orth">    0.00    0.00</time>
   <time name="total">    0.39    0.42</time>
   <energy>
    <i name="e_fr_energy">    -24.03028110 </i>
    <i name="e_wo_entrp">    -24.03087584 </i>
    <i name="e_0_energy">    -24.03028568 </i>
   </energy>
  </scstep>
  <scstep>
   <time name="diag">    0.02    0.02</time>
   <time name="diis">    0.12    0.12</time>
   <time name="orth">    0.00    0.00</time>
   <time name="total">    0.40    0.42</time>
   <energy>
    <i name="e_fr_energy">    -24.03027232 </i>
    <i name="e_wo_entrp">    -24.03090680 </i>
    <i name="e_0_energy">    -24.03027720 </i>
   </energy>
  </scstep>
  <scstep>
   <time name="diag">    0.02    0.02</time>
   <time name="diis">    0.10    0.10</time>
   <time name="orth">    0.00    0.00</time>
   <time name="total">    0.37    0.40</time>
   <energy>
    <i name="e_fr_energy">    -24.03026978 </i>
    <i name="e_wo_entrp">    -24.03092454 </i>
    <i name="e_0_energy">    -24.03027481 </i>
   </energy>
  </scstep>
  <scstep>
   <time name="diag">    0.02    0.02</time>
   <time name="diis">    0.12    0.12</time>
   <time name="orth">    0.00    0.00</time>
   <time name="total">    0.40    0.42</time>
   <energy>
    <i name="e_fr_energy">    -24.03023985 </i>
    <i name="e_wo_entrp">    -24.03109115 </i>
    <i name="e_0_energy">    -24.03024640 </i>
   </energy>
  </scstep>
  <scstep>
   <time name="diag">    0.02    0.02</time>
   <time name="diis">    0.13    0.13</time>
   <time name="orth">    0.00    0.00</time>
   <time name="total">    0.60    0.63</time>
   <energy>
    <i name="e_fr_energy">    -24.03023379 </i>
    <i name="e_wo_entrp">    -24.03083014 </i>
    <i name="e_0_energy">    -24.03023837 </i>
   </energy>
  </scstep>
  <scstep>
   <time name="diag">    0.02    0.02</time>
   <time name="diis">    0.13    0.13</time>
   <time name="orth">    0.00    0.00</time>
   <time name="total">    0.42    0.44</time>
   <energy>
    <i name="e_fr_energy">    -24.03028139 </i>
    <i name="e_wo_entrp">    -24.03087482 </i>
    <i name="e_0_energy">    -24.03028595 </i>
   </energy>
  </scstep>
  <scstep>
   <time name="diag">    0.02    0.02</time>
   <time name="diis">    0.13    0.13</time>
   <time name="orth">    0.00    0.00</time>
   <time name="total">    0.42    0.44</time>
   <energy>
    <i name="e_fr_energy">    -24.03029210 </i>
    <i name="e_wo_entrp">    -24.03088585 </i>
    <i name="e_0_energy">    -24.03029666 </i>
   </energy>
  </scstep>
  <scstep>
   <time name="diag">    0.02    0.02</time>
   <time name="diis">    0.13    0.13</time>
   <time name="orth">    0.00    0.00</time>
   <time name="total">    0.42    0.44</time>
   <energy>
    <i name="e_fr_energy">    -24.03028004 </i>
    <i name="e_wo_entrp">    -24.03087835 </i>
    <i name="e_0_energy">    -24.03028464 </i>
   </energy>
  </scstep>
  <scstep>
   <time name="diag">    0.02    0.02</time>
   <time name="diis">    0.12    0.12</time>
   <time name="orth">    0.00    0.00</time>
   <time name="total">    0.41    0.43</time>
   <energy>
    <i name="e_fr_energy">    -24.03027747 </i>
    <i name="e_wo_entrp">    -24.03088276 </i>
    <i name="e_0_energy">    -24.03028213 </i>
   </energy>
  </scstep>
  <scstep>
   <time name="diag">    0.02    0.02</time>
   <time name="diis">    0.11    0.11</time>
   <time name="orth">    0.00    0.00</time>
   <time name="total">    0.40    0.43</time>
   <energy>
    <i name="e_fr_energy">    -24.03027519 </i>
    <i name="e_wo_entrp">    -24.03089247 </i>
    <i name="e_0_energy">    -24.03027994 </i>
   </energy>
  </scstep>
  <scstep>
   <time name="diag">    0.02    0.02</time>
   <time name="diis">    0.13    0.13</time>
   <time name="orth">    0.00    0.00</time>
   <time name="total">    0.42    0.44</time>
   <energy>
    <i name="e_fr_energy">    -24.03027164 </i>
    <i name="e_wo_entrp">    -24.03091900 </i>
    <i name="e_0_energy">    -24.03027662 </i>
   </energy>
  </scstep>
  <scstep>
   <time name="diag">    0.02    0.02</time>
   <time name="diis">    0.10    0.11</time>
   <time name="orth">    0.00    0.00</time>
   <time name="total">    0.40    0.42</time>
   <energy>
    <i name="e_fr_energy">    -24.03027060 </i>
    <i name="e_wo_entrp">    -24.03092299 </i>
    <i name="e_0_energy">    -24.03027562 </i>
   </energy>
  </scstep>
  <scstep>
   <time name="diag">    0.02    0.02</time>
   <time name="diis">    0.10    0.10</time>
   <time name="orth">    0.00    0.00</time>
   <time name="total">    0.35    0.38</time>
   <energy>
    <i name="alphaZ">      0.03028135 </i>
    <i name="ewald">    192.99554449 </i>
    <i name="hartreedc">   -347.68816786 </i>
    <i name="XCdc">     24.73986778 </i>
    <i name="pawpsdc">    466.37488736 </i>
    <i name="pawaedc">   -467.16225847 </i>
    <i name="eentropy">      0.00065146 </i>
    <i name="bandstr">    -90.36283097 </i>
    <i name="atom">    197.04175453 </i>
    <i name="e_fr_energy">    -24.03027033 </i>
    <i name="e_wo_entrp">    -24.03092179 </i>
    <i name="e_0_energy">    -24.03027534 </i>
   </energy>
  </scstep>
  <structure>
   <crystal>
    <varray name="basis" >
     <v>      16.32993162      -8.16496581      -8.16496581 </v>
     <v>       0.00000000      14.14213562     -14.14213562 </v>
     <v>      11.54700538      11.54700538      11.54700538 </v>
    </varray>
    <i name="volume">   8000.00000000 </i>
    <varray name="rec_basis" >
     <v>       0.04082483      -0.02041241      -0.02041241 </v>
     <v>       0.00000000       0.03535534      -0.03535534 </v>
     <v>       0.02886751       0.02886751       0.02886751 </v>
    </varray>
   </crystal>
   <varray name="positions" >
    <v>       0.35003636       0.54808298       0.51972428 </v>
    <v>       0.34133903       0.60224514       0.52047866 </v>
    <v>       0.39240242       0.53691260       0.48672211 </v>
    <v>       0.30507058       0.52264148       0.50129428 </v>
    <v>       0.36139882       0.53057849       0.57046180 </v>
   </varray>
  </structure>
  <varray name="forces" >
   <v>       0.01645127       0.03620909      -0.00068803 </v>
   <v>      -0.00404627      -0.01333270       0.00339624 </v>
   <v>      -0.00108178      -0.00926572      -0.00229188 </v>
   <v>      -0.00395800      -0.00492380       0.00041168 </v>
   <v>      -0.00736522      -0.00868686      -0.00082801 </v>
  </varray>
  <varray name="stress" >
   <v>      -0.07661502       0.00041828      -0.00151338 </v>
   <v>       0.00041828      -0.07532474       0.00207419 </v>
   <v>      -0.00151338       0.00207419      -0.07666018 </v>
  </varray>
  <energy>
   <i name="e_fr_energy">    -24.03231668 </i>
   <i name="e_wo_entrp">    -24.03253383 </i>
   <i name="e_0_energy">      0.00065146 </i>
  </energy>
  <time name="totalsc">    8.03    8.51</time>
 </calculation>
 <calculation>
  <scstep>
   <time name="dav">    0.27    0.27</time>
   <time name="total">    0.53    0.54</time>
   <energy>
    <i name="alphaZ">      0.03028135 </i>
    <i name="ewald">    193.02314168 </i>
    <i name="hartreedc">   -347.70425452 </i>
    <i name="XCdc">     24.74066733 </i>
    <i name="pawpsdc">    466.37688114 </i>
    <i name="pawaedc">   -467.16425307 </i>
    <i name="eentropy">      0.00065372 </i>
    <i name="bandstr">    -90.37514469 </i>
    <i name="atom">    197.04175453 </i>
    <i name="e_fr_energy">    -24.03027252 </i>
    <i name="e_wo_entrp">    -24.03092624 </i>
    <i name="e_0_energy">    -24.03027754 </i>
   </energy>
  </scstep>
  <scstep>
   <time name="diag">    0.02    0.03</time>
   <time name="diis">    0.12    0.12</time>
   <time name="orth">    0.00    0.00</time>
   <time name="total">    0.40    0.42</time>
   <energy>
    <i name="e_fr_energy">    -24.03026451 </i>
    <i name="e_wo_entrp">    -24.03098086 </i>
    <i name="e_0_energy">    -24.03027002 </i>
   </energy>
  </scstep>
  <scstep>
   <time name="diag">    0.02    0.02</time>
   <time name="diis">    0.12    0.12</time>
   <time name="orth">    0.00    0.00</time>
   <time name="total">    0.40    0.43</time>
   <energy>
    <i name="e_fr_energy">    -24.03026333 </i>
    <i name="e_wo_entrp">    -24.03089405 </i>
    <i name="e_0_energy">    -24.03026819 </i>
   </energy>
  </scstep>
  <scstep>
   <time name="diag">    0.02    0.02</time>
   <time name="diis">    0.12    0.12</time>
   <time name="orth">    0.00    0.00</time>
   <time name="total">    0.40    0.42</time>
   <energy>
    <i name="e_fr_energy">    -24.03027581 </i>
    <i name="e_wo_entrp">    -24.03087958 </i>
    <i name="e_0_energy">    -24.03028046 </i>
   </energy>
  </scstep>
  <scstep>
   <time name="diag">    0.02    0.02</time>
   <time name="diis">    0.12    0.12</time>
   <time name="orth">    0.00    0.00</time>
   <time name="total">    0.40    0.43</time>
   <energy>
    <i name="e_fr_energy">    -24.03028941 </i>
    <i name="e_wo_entrp">    -24.03088443 </i>
    <i name="e_0_energy">    -24.03029399 </i>
   </energy>
  </scstep>
  <scstep>
   <time name="diag">    0.02    0.02</time>
   <time name="diis">    0.12    0.12</time>
   <time name="orth">    0.00    0.00</time>
   <time name="total">    0.40    0.42</time>
   <energy>
    <i name="e_fr_energy">    -24.03028528 </i>
    <i name="e_wo_entrp">    -24.03088165 </i>
    <i name="e_0_energy">    -24.03028987 </i>
   </energy>
  </scstep>
  <scstep>
   <time name="diag">    0.02    0.02</time>
   <time name="diis">    0.12    0.12</time>
   <time name="orth">    0.00    0.00</time>
   <time name="total">    0.41    0.43</time>
   <energy>
    <i name="e_fr_energy">    -24.03028086 </i>
    <i name="e_wo_entrp">    -24.03088582 </i>
    <i name="e_0_energy">    -24.03028552 </i>
   </energy>
  </scstep>
  <scstep>
   <time name="diag">    0.02    0.02</time>
   <time name="diis">    0.13    0.13</time>
   <time name="orth">    0.00    0.00</time>
   <time name="total">    0.41    0.43</time>
   <energy>
    <i name="e_fr_energy">    -24.03027667 </i>
    <i name="e_wo_entrp">    -24.03090436 </i>
    <i name="e_0_energy">    -24.03028150 </i>
   </energy>
  </scstep>
  <scstep>
   <time name="diag">    0.02    0.02</time>
   <time name="diis">    0.13    0.13</time>
   <time name="orth">    0.00    0.00</time>
   <time name="total">    0.41    0.43</time>
   <energy>
    <i name="e_fr_energy">    -24.03027020 </i>
    <i name="e_wo_entrp">    -24.03094748 </i>
    <i name="e_0_energy">    -24.03027541 </i>
   </energy>
  </scstep>
  <scstep>
   <time name="diag">    0.02    0.02</time>
   <time name="diis">    0.10    0.10</time>
   <time name="orth">    0.00    0.00</time>
   <time name="total">    0.39    0.41</time>
   <energy>
    <i name="e_fr_energy">    -24.03026438 </i>
    <i name="e_wo_entrp">    -24.03096969 </i>
    <i name="e_0_energy">    -24.03026981 </i>
   </energy>
  </scstep>
  <scstep>
   <time name="diag">    0.02    0.02</time>
   <time name="diis">    0.16    0.16</time>
   <time name="orth">    0.01    0.01</time>
   <time name="total">    0.46    0.48</time>
   <energy>
    <i name="e_fr_energy">    -24.03026027 </i>
    <i name="e_wo_entrp">    -24.03096414 </i>
    <i name="e_0_energy">    -24.03026568 </i>
   </energy>
  </scstep>
  <scstep>
   <time name="diag">    0.02    0.02</time>
   <time name="diis">    0.10    0.10</time>
   <time name="orth">    0.00    0.00</time>
   <time name="total">    0.44    0.47</time>
   <energy>
    <i name="alphaZ">      0.03028135 </i>
    <i name="ewald">    193.02314168 </i>
    <i name="hartreedc">   -347.71225012 </i>
    <i name="XCdc">     24.74113467 </i>
    <i name="pawpsdc">    466.53756430 </i>
    <i name="pawaedc">   -467.32502958 </i>
    <i name="eentropy">      0.00070364 </i>
    <i name="bandstr">    -90.36755985 </i>
    <i name="atom">    197.04175453 </i>
    <i name="e_fr_energy">    -24.03025937 </i>
    <i name="e_wo_entrp">    -24.03096301 </i>
    <i name="e_0_energy">    -24.03026478 </i>
   </energy>
  </scstep>
  <structure>
   <crystal>
    <varray name="basis" >
     <v>      16.32993162      -8.16496581      -8.16496581 </v>
     <v>       0.00000000      14.14213562     -14.14213562 </v>
     <v>      11.54700538      11.54700538      11.54700538 </v>
    </varray>
    <i name="volume">   8000.00000000 </i>
    <varray name="rec_basis" >
     <v>       0.04082483      -0.02041241      -0.02041241 </v>
     <v>       0.00000000       0.03535534      -0.03535534 </v>
     <v>       0.02886751       0.02886751       0.02886751 </v>
    </varray>
   </crystal>
   <varray name="positions" >
    <v>       0.35003551       0.54810087       0.51975087 </v>
    <v>       0.34133782       0.60224127       0.52046969 </v>
    <v>       0.39239142       0.53690469       0.48671719 </v>
    <v>       0.30508667       0.52264284       0.50128793 </v>
    <v>       0.36139580       0.53057102       0.57045545 </v>
   </varray>
  </structure>
  <varray name="forces" >
   <v>      -0.04658467      -0.05394136       0.00092146 </v>
   <v>      -0.00284432       0.00950994      -0.01557839 </v>
   <v>       0.01679212       0.02178994      -0.00099244 </v>
   <v>       0.01655041       0.02290522      -0.00050544 </v>
   <v>       0.01608646      -0.00026374       0.01615481 </v>
  </varray>
  <varray name="stress" >
   <v>      -0.07766101      -0.00113912       0.00586321 </v>
   <v>      -0.00113912      -0.07623652      -0.00214489 </v>
   <v>       0.00586321      -0.00214489      -0.07135150 </v>
  </varray>
  <energy>
   <i name="e_fr_energy">    -24.03230399 </i>
   <i name="e_wo_entrp">    -24.03253854 </i>
   <i name="e_0_energy">      0.00070364 </i>
  </energy>
  <time name="totalsc">    5.88    6.24</time>
 </calculation>
 <calculation>
  <scstep>
   <time name="dav">    0.26    0.26</time>
   <time name="total">    0.52    0.53</time>
   <energy>
    <i name="alphaZ">      0.03028135 </i>
    <i name="ewald">    193.01456099 </i>
    <i name="hartreedc">   -347.70719673 </i>
    <i name="XCdc">     24.74088215 </i>
    <i name="pawpsdc">    466.53745732 </i>
    <i name="pawaedc">   -467.32492181 </i>
    <i name="eentropy">      0.00058982 </i>
    <i name="bandstr">    -90.36366945 </i>
    <i name="atom">    197.04175453 </i>
    <i name="e_fr_energy">    -24.03026182 </i>
    <i name="e_wo_entrp">    -24.03085164 </i>
    <i name="e_0_energy">    -24.03026636 </i>
   </energy>
  </scstep>
  <scstep>
   <time name="diag">    0.02    0.02</time>
   <time name="diis">    0.12    0.12</time>
   <time name="orth">    0.00    0.00</time>
   <time name="total">    0.40    0.42</time>
   <energy>
    <i name="e_fr_energy">    -24.03026950 </i>
    <i name="e_wo_entrp">    -24.03085855 </i>
    <i name="e_0_energy">    -24.03027403 </i>
   </energy>
  </scstep>
  <scstep>
   <time name="diag">    0.02    0.02</time>
   <time name="diis">    0.09    0.09</time>
   <time name="orth">    0.00    0.00</time>
   <time name="total">    0.34    0.36</time>
   <energy>
    <i name="alphaZ">      0.03028135 </i>
    <i name="ewald">    193.01456099 </i>
    <i name="hartreedc">   -347.70422961 </i>
    <i name="XCdc">     24.74071275 </i>
    <i name="pawpsdc">    466.46581474 </i>
    <i name="pawaedc">   -467.25324232 </i>
    <i name="eentropy">      0.00058854 </i>
    <i name="bandstr">    -90.36651050 </i>
    <i name="atom">    197.04175453 </i>
    <i name="e_fr_energy">    -24.03026952 </i>
    <i name="e_wo_entrp">    -24.03085806 </i>
    <i name="e_0_energy">    -24.03027405 </i>
   </energy>
  </scstep>
  <structure>
   <crystal>
    <varray name="basis" >
     <v>      16.32993162      -8.16496581      -8.16496581 </v>
     <v>       0.00000000      14.14213562     -14.14213562 </v>
     <v>      11.54700538      11.54700538      11.54700538 </v>
    </varray>
    <i name="volume">   8000.00000000 </i>
    <varray name="rec_basis" >
     <v>       0.04082483      -0.02041241      -0.02041241 </v>
     <v>       0.00000000       0.03535534      -0.03535534 </v>
     <v>       0.02886751       0.02886751       0.02886751 </v>
    </varray>
   </crystal>
   <varray name="positions" >
    <v>       0.35002285       0.54809951       0.51972819 </v>
    <v>       0.34134075       0.60223606       0.52046682 </v>
    <v>       0.39240394       0.53691224       0.48672425 </v>
    <v>       0.30508032       0.52264777       0.50129867 </v>
    <v>       0.36139935       0.53056511       0.57046319 </v>
   </varray>
  </structure>
  <varray name="forces" >
   <v>       0.02403309      -0.00952360       0.00261702 </v>
   <v>       0.00440665       0.01409522      -0.00025541 </v>
   <v>      -0.01293132      -0.00101464       0.00864663 </v>
   <v>      -0.00925023      -0.01204774      -0.00154791 </v>
   <v>      -0.00625818       0.00849077      -0.00946033 </v>
  </varray>
  <varray name="stress" >
   <v>      -0.07636940       0.00347147      -0.00070010 </v>
   <v>       0.00347147      -0.07207081      -0.00168246 </v>
   <v>      -0.00070010      -0.00168246      -0.07772194 </v>
  </varray>
  <energy>
   <i name="e_fr_energy">    -24.03231468 </i>
   <i name="e_wo_entrp">    -24.03251086 </i>
   <i name="e_0_energy">      0.00058854 </i>
  </energy>
  <time name="totalsc">    2.06    2.22</time>
 </calculation>
 <calculation>
  <scstep>
   <time name="dav">    0.25    0.25</time>
   <time name="total">    0.50    0.51</time>
   <energy>
    <i name="alphaZ">      0.03028135 </i>
    <i name="ewald">    193.00754050 </i>
    <i name="hartreedc">   -347.70040428 </i>
    <i name="XCdc">     24.74051971 </i>
    <i name="pawpsdc">    466.47062625 </i>
    <i name="pawaedc">   -467.25805790 </i>
    <i name="eentropy">      0.00059920 </i>
    <i name="bandstr">    -90.36313680 </i>
    <i name="atom">    197.04175453 </i>
    <i name="e_fr_energy">    -24.03027746 </i>
    <i name="e_wo_entrp">    -24.03087666 </i>
    <i name="e_0_energy">    -24.03028206 </i>
   </energy>
  </scstep>
  <scstep>
   <time name="diag">    0.02    0.02</time>
   <time name="diis">    0.11    0.11</time>
   <time name="orth">    0.00    0.00</time>
   <time name="total">    0.36    0.39</time>
   <energy>
    <i name="alphaZ">      0.03028135 </i>
    <i name="ewald">    193.00754050 </i>
    <i name="hartreedc">   -347.69915454 </i>
    <i name="XCdc">     24.74044889 </i>
    <i name="pawpsdc">    466.45474384 </i>
    <i name="pawaedc">   -467.24216306 </i>
    <i name="eentropy">      0.00059985 </i>
    <i name="bandstr">    -90.36432899 </i>
    <i name="atom">    197.04175453 </i>
    <i name="e_fr_energy">    -24.03027763 </i>
    <i name="e_wo_entrp">    -24.03087749 </i>
    <i name="e_0_energy">    -24.03028225 </i>
   </energy>
  </scstep>
  <structure>
   <crystal>
    <varray name="basis" >
     <v>      16.32993162      -8.16496581      -8.16496581 </v>
     <v>       0.00000000      14.14213562     -14.14213562 </v>
     <v>      11.54700538      11.54700538      11.54700538 </v>
    </varray>
    <i name="volume">   8000.00000000 </i>
    <varray name="rec_basis" >
     <v>       0.04082483      -0.02041241      -0.02041241 </v>
     <v>       0.00000000       0.03535534      -0.03535534 </v>
     <v>       0.02886751       0.02886751       0.02886751 </v>
    </varray>
   </crystal>
   <varray name="positions" >
    <v>       0.35003563       0.54809085       0.51973563 </v>
    <v>       0.34133876       0.60224650       0.52046774 </v>
    <v>       0.39239848       0.53691068       0.48672510 </v>
    <v>       0.30507742       0.52264501       0.50129398 </v>
    <v>       0.36139692       0.53056765       0.57045867 </v>
   </varray>
  </structure>
  <varray name="forces" >
   <v>       0.00407824       0.00178852      -0.00383852 </v>
   <v>       0.00537476       0.00339824       0.00579388 </v>
   <v>      -0.00844183      -0.00518987       0.00393437 </v>
   <v>      -0.00171808      -0.00867195      -0.00387209 </v>
   <v>       0.00070691       0.00867505      -0.00201763 </v>
  </varray>
  <varray name="stress" >
   <v>      -0.07676557       0.00298892       0.00037183 </v>
   <v>       0.00298892      -0.07319736       0.00033846 </v>
   <v>       0.00037183       0.00033846      -0.07745407 </v>
  </varray>
  <energy>
   <i name="e_fr_energy">    -24.03232323 </i>
   <i name="e_wo_entrp">    -24.03252319 </i>
   <i name="e_0_energy">      0.00059985 </i>
  </energy>
  <time name="totalsc">    1.66    1.80</time>
 </calculation>
 <calculation>
  <scstep>
   <time name="dav">    0.24    0.24</time>
   <time name="total">    1.27    1.28</time>
   <energy>
    <i name="alphaZ">      0.03028135 </i>
    <i name="ewald">    193.00535927 </i>
    <i name="hartreedc">   -347.69684404 </i>
    <i name="XCdc">     24.74032633 </i>
    <i name="pawpsdc">    466.44387998 </i>
    <i name="pawaedc">   -467.23128557 </i>
    <i name="eentropy">      0.00077683 </i>
    <i name="bandstr">    -90.36450900 </i>
    <i name="atom">    197.04175453 </i>
    <i name="e_fr_energy">    -24.03026032 </i>
    <i name="e_wo_entrp">    -24.03103715 </i>
    <i name="e_0_energy">    -24.03026629 </i>
   </energy>
  </scstep>
  <scstep>
   <time name="diag">    0.02    0.02</time>
   <time name="diis">    0.12    0.12</time>
   <time name="orth">    0.00    0.00</time>
   <time name="total">    0.39    0.41</time>
   <energy>
    <i name="e_fr_energy">    -24.03009991 </i>
    <i name="e_wo_entrp">    -24.03133608 </i>
    <i name="e_0_energy">    -24.03010942 </i>
   </energy>
  </scstep>
  <scstep>
   <time name="diag">    0.03    0.03</time>
   <time name="diis">    0.12    0.12</time>
   <time name="orth">    0.00    0.00</time>
   <time name="total">    0.39    0.42</time>
   <energy>
    <i name="e_fr_energy">    -24.02997661 </i>
    <i name="e_wo_entrp">    -24.03078744 </i>
    <i name="e_0_energy">    -24.02998285 </i>
   </energy>
  </scstep>
  <scstep>
   <time name="diag">    0.02    0.02</time>
   <time name="diis">    0.12    0.12</time>
   <time name="orth">    0.00    0.00</time>
   <time name="total">    0.40    0.42</time>
   <energy>
    <i name="e_fr_energy">    -24.03020954 </i>
    <i name="e_wo_entrp">    -24.03096356 </i>
    <i name="e_0_energy">    -24.03021534 </i>
   </energy>
  </scstep>
  <scstep>
   <time name="diag">    0.02    0.02</time>
   <time name="diis">    0.09    0.09</time>
   <time name="orth">    0.00    0.00</time>
   <time name="total">    0.37    0.40</time>
   <energy>
    <i name="e_fr_energy">    -24.03025103 </i>
    <i name="e_wo_entrp">    -24.03099552 </i>
    <i name="e_0_energy">    -24.03025675 </i>
   </energy>
  </scstep>
  <scstep>
   <time name="diag">    0.02    0.02</time>
   <time name="diis">    0.09    0.09</time>
   <time name="orth">    0.00    0.00</time>
   <time name="total">    0.37    0.40</time>
   <energy>
    <i name="e_fr_energy">    -24.03025942 </i>
    <i name="e_wo_entrp">    -24.03099786 </i>
    <i name="e_0_energy">    -24.03026510 </i>
   </energy>
  </scstep>
  <scstep>
   <time name="diag">    0.02    0.02</time>
   <time name="diis">    0.12    0.12</time>
   <time name="orth">    0.00    0.00</time>
   <time name="total">    0.40    0.43</time>
   <energy>
    <i name="e_fr_energy">    -24.03025364 </i>
    <i name="e_wo_entrp">    -24.03100961 </i>
    <i name="e_0_energy">    -24.03025946 </i>
   </energy>
  </scstep>
  <scstep>
   <time name="diag">    0.02    0.02</time>
   <time name="diis">    0.13    0.13</time>
   <time name="orth">    0.00    0.00</time>
   <time name="total">    0.40    0.42</time>
   <energy>
    <i name="e_fr_energy">    -24.03021214 </i>
    <i name="e_wo_entrp">    -24.03120923 </i>
    <i name="e_0_energy">    -24.03021981 </i>
   </energy>
  </scstep>
  <scstep>
   <time name="diag">    0.02    0.02</time>
   <time name="diis">    0.13    0.13</time>
   <time name="orth">    0.00    0.00</time>
   <time name="total">    0.40    0.43</time>
   <energy>
    <i name="e_fr_energy">    -24.03016141 </i>
    <i name="e_wo_entrp">    -24.03098068 </i>
    <i name="e_0_energy">    -24.03016771 </i>
   </energy>
  </scstep>
  <scstep>
   <time name="diag">    0.02    0.02</time>
   <time name="diis">    0.10    0.10</time>
   <time name="orth">    0.00    0.00</time>
   <time name="total">    0.38    0.40</time>
   <energy>
    <i name="e_fr_energy">    -24.03022920 </i>
    <i name="e_wo_entrp">    -24.03104514 </i>
    <i name="e_0_energy">    -24.03023547 </i>
   </energy>
  </scstep>
  <scstep>
   <time name="diag">    0.02    0.02</time>
   <time name="diis">    0.10    0.10</time>
   <time name="orth">    0.00    0.00</time>
   <time name="total">    0.38    0.41</time>
   <energy>
    <i name="e_fr_energy">    -24.03024210 </i>
    <i name="e_wo_entrp">    -24.03101906 </i>
    <i name="e_0_energy">    -24.03024808 </i>
   </energy>
  </scstep>
  <scstep>
   <time name="diag">    0.02    0.02</time>
   <time name="diis">    0.10    0.10</time>
   <time name="orth">    0.00    0.00</time>
   <time name="total">    0.38    0.41</time>
   <energy>
    <i name="e_fr_energy">    -24.03025802 </i>
    <i name="e_wo_entrp">    -24.03099275 </i>
    <i name="e_0_energy">    -24.03026367 </i>
   </energy>
  </scstep>
  <scstep>
   <time name="diag">    0.02    0.02</time>
   <time name="diis">    0.10    0.10</time>
   <time name="orth">    0.00    0.00</time>
   <time name="total">    0.39    0.41</time>
   <energy>
    <i name="e_fr_energy">    -24.03027182 </i>
    <i name="e_wo_entrp">    -24.03097572 </i>
    <i name="e_0_energy">    -24.03027723 </i>
   </energy>
  </scstep>
  <scstep>
   <time name="diag">    0.02    0.02</time>
   <time name="diis">    0.12    0.12</time>
   <time name="orth">    0.00    0.00</time>
   <time name="total">    0.41    0.43</time>
   <energy>
    <i name="e_fr_energy">    -24.03028375 </i>
    <i name="e_wo_entrp">    -24.03097103 </i>
    <i name="e_0_energy">    -24.03028903 </i>
   </energy>
  </scstep>
  <scstep>
   <time name="diag">    0.02    0.02</time>
   <time name="diis">    0.10    0.10</time>
   <time name="orth">    0.00    0.00</time>
   <time name="total">    0.39    0.41</time>
   <energy>
    <i name="e_fr_energy">    -24.03028567 </i>
    <i name="e_wo_entrp">    -24.03096970 </i>
    <i name="e_0_energy">    -24.03029093 </i>
   </energy>
  </scstep>
  <scstep>
   <time name="diag">    0.02    0.02</time>
   <time name="diis">    0.10    0.10</time>
   <time name="orth">    0.00    0.00</time>
   <time name="total">    0.39    0.42</time>
   <energy>
    <i name="e_fr_energy">    -24.03028257 </i>
    <i name="e_wo_entrp">    -24.03098011 </i>
    <i name="e_0_energy">    -24.03028793 </i>
   </energy>
  </scstep>
  <scstep>
   <time name="diag">    0.02    0.02</time>
   <time name="diis">    0.13    0.13</time>
   <time name="orth">    0.00    0.00</time>
   <time name="total">    0.42    0.44</time>
   <energy>
    <i name="e_fr_energy">    -24.03027361 </i>
    <i name="e_wo_entrp">    -24.03101044 </i>
    <i name="e_0_energy">    -24.03027928 </i>
   </energy>
  </scstep>
  <scstep>
   <time name="diag">    0.02    0.02</time>
   <time name="diis">    0.13    0.13</time>
   <time name="orth">    0.00    0.00</time>
   <time name="total">    0.43    0.45</time>
   <energy>
    <i name="e_fr_energy">    -24.03025684 </i>
    <i name="e_wo_entrp">    -24.03108626 </i>
    <i name="e_0_energy">    -24.03026322 </i>
   </energy>
  </scstep>
  <scstep>
   <time name="diag">    0.02    0.02</time>
   <time name="diis">    0.10    0.10</time>
   <time name="orth">    0.00    0.00</time>
   <time name="total">    0.40    0.42</time>
   <energy>
    <i name="e_fr_energy">    -24.03024354 </i>
    <i name="e_wo_entrp">    -24.03111446 </i>
    <i name="e_0_energy">    -24.03025023 </i>
   </energy>
  </scstep>
  <scstep>
   <time name="diag">    0.02    0.02</time>
   <time name="diis">    0.10    0.10</time>
   <time name="orth">    0.00    0.00</time>
   <time name="total">    0.40    0.43</time>
   <energy>
    <i name="e_fr_energy">    -24.03023433 </i>
    <i name="e_wo_entrp">    -24.03110001 </i>
    <i name="e_0_energy">    -24.03024099 </i>
   </energy>
  </scstep>
  <scstep>
   <time name="diag">    0.02    0.02</time>
   <time name="diis">    0.10    0.10</time>
   <time name="orth">    0.00    0.00</time>
   <time name="total">    0.40    0.43</time>
   <energy>
    <i name="e_fr_energy">    -24.03022936 </i>
    <i name="e_wo_entrp">    -24.03110256 </i>
    <i name="e_0_energy">    -24.03023608 </i>
   </energy>
  </scstep>
  <scstep>
   <time name="diag">    0.02    0.02</time>
   <time name="diis">    0.10    0.10</time>
   <time name="orth">    0.00    0.00</time>
   <time name="total">    0.41    0.43</time>
   <energy>
    <i name="e_fr_energy">    -24.03022103 </i>
    <i name="e_wo_entrp">    -24.03112662 </i>
    <i name="e_0_energy">    -24.03022800 </i>
   </energy>
  </scstep>
  <scstep>
   <time name="diag">    0.02    0.02</time>
   <time name="diis">    0.10    0.10</time>
   <time name="orth">    0.00    0.00</time>
   <time name="total">    0.41    0.44</time>
   <energy>
    <i name="e_fr_energy">    -24.03021312 </i>
    <i name="e_wo_entrp">    -24.03110642 </i>
    <i name="e_0_energy">    -24.03021999 </i>
   </energy>
  </scstep>
  <scstep>
   <time name="diag">    0.02    0.02</time>
   <time name="diis">    0.10    0.10</time>
   <time name="orth">    0.00    0.00</time>
   <time name="total">    0.42    0.44</time>
   <energy>
    <i name="e_fr_energy">    -24.03021490 </i>
    <i name="e_wo_entrp">    -24.03108789 </i>
    <i name="e_0_energy">    -24.03022162 </i>
   </energy>
  </scstep>
  <scstep>
   <time name="diag">    0.02    0.02</time>
   <time name="diis">    0.10    0.10</time>
   <time name="orth">    0.00    0.00</time>
   <time name="total">    0.42    0.45</time>
   <energy>
    <i name="e_fr_energy">    -24.03021902 </i>
    <i name="e_wo_entrp">    -24.03108237 </i>
    <i name="e_0_energy">    -24.03022566 </i>
   </energy>
  </scstep>
  <scstep>
   <time name="diag">    0.02    0.02</time>
   <time name="diis">    0.09    0.09</time>
   <time name="orth">    0.00    0.00</time>
   <time name="total">    0.42    0.44</time>
   <energy>
    <i name="e_fr_energy">    -24.03022123 </i>
    <i name="e_wo_entrp">    -24.03108563 </i>
    <i name="e_0_energy">    -24.03022788 </i>
   </energy>
  </scstep>
  <scstep>
   <time name="diag">    0.02    0.02</time>
   <time name="diis">    0.09    0.09</time>
   <time name="orth">    0.00    0.00</time>
   <time name="total">    0.34    0.37</time>
   <energy>
    <i name="alphaZ">      0.03028135 </i>
    <i name="ewald">    193.00535927 </i>
    <i name="hartreedc">   -347.69709016 </i>
    <i name="XCdc">     24.74035978 </i>
    <i name="pawpsdc">    466.43106786 </i>
    <i name="pawaedc">   -467.21847029 </i>
    <i name="eentropy">      0.00085991 </i>
    <i name="bandstr">    -90.36434422 </i>
    <i name="atom">    197.04175453 </i>
    <i name="e_fr_energy">    -24.03022199 </i>
    <i name="e_wo_entrp">    -24.03108189 </i>
    <i name="e_0_energy">    -24.03022860 </i>
   </energy>
  </scstep>
  <structure>
   <crystal>
    <varray name="basis" >
     <v>      16.32993162      -8.16496581      -8.16496581 </v>
     <v>       0.00000000      14.14213562     -14.14213562 </v>
     <v>      11.54700538      11.54700538      11.54700538 </v>
    </varray>
    <i name="volume">   8000.00000000 </i>
    <varray name="rec_basis" >
     <v>       0.04082483      -0.02041241      -0.02041241 </v>
     <v>       0.00000000       0.03535534      -0.03535534 </v>
     <v>       0.02886751       0.02886751       0.02886751 </v>
    </varray>
   </crystal>
   <varray name="positions" >
    <v>       0.35003842       0.54808894       0.51972173 </v>
    <v>       0.34134014       0.60224734       0.52048394 </v>
    <v>       0.39238612       0.53690138       0.48671897 </v>
    <v>       0.30508807       0.52264296       0.50128313 </v>
    <v>       0.36139446       0.53058008       0.57047337 </v>
   </varray>
  </structure>
  <varray name="forces" >
   <v>       0.03418974       0.09945358       0.00103231 </v>
   <v>      -0.03608164      -0.05762203      -0.01779948 </v>
   <v>       0.04107162      -0.00512104      -0.02869625 </v>
   <v>      -0.01243605       0.02815074       0.02993674 </v>
   <v>      -0.02674367      -0.06486125       0.01552668 </v>
  </varray>
  <varray name="stress" >
   <v>      -0.07363739      -0.00957470      -0.00881675 </v>
   <v>      -0.00957470      -0.08380757       0.00649733 </v>
   <v>      -0.00881675       0.00649733      -0.06993748 </v>
  </varray>
  <energy>
   <i name="e_fr_energy">    -24.03226771 </i>
   <i name="e_wo_entrp">    -24.03255435 </i>
   <i name="e_0_energy">      0.00085991 </i>
  </energy>
  <time name="totalsc">   12.51   13.20</time>
 </calculation>
 <calculation>
  <scstep>
   <time name="dav">    0.21    0.21</time>
   <time name="total">    0.47    0.48</time>
   <energy>
    <i name="alphaZ">      0.03028135 </i>
    <i name="ewald">    193.00652859 </i>
    <i name="hartreedc">   -347.69774861 </i>
    <i name="XCdc">     24.74039150 </i>
    <i name="pawpsdc">    466.43114833 </i>
    <i name="pawaedc">   -467.21855075 </i>
    <i name="eentropy">      0.00103502 </i>
    <i name="bandstr">    -90.36499731 </i>
    <i name="atom">    197.04175453 </i>
    <i name="e_fr_energy">    -24.03015735 </i>
    <i name="e_wo_entrp">    -24.03119236 </i>
    <i name="e_0_energy">    -24.03016531 </i>
   </energy>
  </scstep>
  <scstep>
   <time name="diag">    0.02    0.02</time>
   <time name="diis">    0.12    0.12</time>
   <time name="orth">    0.00    0.00</time>
   <time name="total">    0.39    0.41</time>
   <energy>
    <i name="e_fr_energy">    -24.03026656 </i>
    <i name="e_wo_entrp">    -24.03138973 </i>
    <i name="e_0_energy">    -24.03027520 </i>
   </energy>
  </scstep>
  <scstep>
   <time name="diag">    0.02    0.02</time>
   <time name="diis">    0.12    0.12</time>
   <time name="orth">    0.00    0.00</time>
   <time name="total">    0.39    0.41</time>
   <energy>
    <i name="e_fr_energy">    -24.02951893 </i>
    <i name="e_wo_entrp">    -24.03079079 </i>
    <i name="e_0_energy">    -24.02952871 </i>
   </energy>
  </scstep>
  <scstep>
   <time name="diag">    0.02    0.02</time>
   <time name="diis">    0.12    0.12</time>
   <time name="orth">    0.00    0.00</time>
   <time name="total">    0.39    0.41</time>
   <energy>
    <i name="e_fr_energy">    -24.02950993 </i>
    <i name="e_wo_entrp">    -24.03075695 </i>
    <i name="e_0_energy">    -24.02951952 </i>
   </energy>
  </scstep>
  <scstep>
   <time name="diag">    0.02    0.02</time>
   <time name="diis">    0.12    0.12</time>
   <time name="orth">    0.00    0.00</time>
   <time name="total">    0.39    0.42</time>
   <energy>
    <i name="e_fr_energy">    -24.02939032 </i>
    <i name="e_wo_entrp">    -24.03055710 </i>
    <i name="e_0_energy">    -24.02939930 </i>
   </energy>
  </scstep>
  <scstep>
   <time name="diag">    0.02    0.02</time>
   <time name="diis">    0.12    0.12</time>
   <time name="orth">    0.00    0.00</time>
   <time name="total">    0.40    0.42</time>
   <energy>
    <i name="e_fr_energy">    -24.03002048 </i>
    <i name="e_wo_entrp">    -24.03129856 </i>
    <i name="e_0_energy">    -24.03003031 </i>
   </energy>
  </scstep>
  <scstep>
   <time name="diag">    0.02    0.02</time>
   <time name="diis">    0.12    0.12</time>
   <time name="orth">    0.00    0.00</time>
   <time name="total">    0.40    0.42</time>
   <energy>
    <i name="e_fr_energy">    -24.02943936 </i>
    <i name="e_wo_entrp">    -24.03071459 </i>
    <i name="e_0_energy">    -24.02944917 </i>
   </energy>
  </scstep>
  <scstep>
   <time name="diag">    0.02    0.02</time>
   <time name="diis">    0.13    0.12</time>
   <time name="orth">    0.00    0.00</time>
   <time name="total">    0.40    0.43</time>
   <energy>
    <i name="e_fr_energy">    -24.02921011 </i>
    <i name="e_wo_entrp">    -24.03037366 </i>
    <i name="e_0_energy">    -24.02921906 </i>
   </energy>
  </scstep>
  <scstep>
[...]
   <v>       0.00546325       0.00305072       0.00315572 </v>
   <v>       0.00109504      -0.02183781      -0.00698079 </v>
   <v>       0.00461633      -0.00710226      -0.00549107 </v>
   <v>      -0.01007965       0.00123139      -0.01323985 </v>
  </varray>
  <varray name="stress" >
   <v>      -0.07789761       0.00237572      -0.00382298 </v>
   <v>       0.00237572      -0.06948786       0.00310267 </v>
   <v>      -0.00382298       0.00310267      -0.07976672 </v>
  </varray>
  <energy>
   <i name="e_fr_energy">    -24.03232401 </i>
   <i name="e_wo_entrp">    -24.03252381 </i>
   <i name="e_0_energy">      0.00059940 </i>
  </energy>
  <time name="totalsc">    7.82    8.11</time>
 </calculation>
 <calculation>
  <scstep>
   <time name="dav">    0.26    0.26</time>
   <time name="total">    0.57    0.58</time>
   <energy>
    <i name="alphaZ">      0.03028135 </i>
    <i name="ewald">    193.00755634 </i>
    <i name="hartreedc">   -347.69872341 </i>
    <i name="XCdc">     24.74041795 </i>
    <i name="pawpsdc">    466.41261199 </i>
    <i name="pawaedc">   -467.20002491 </i>
    <i name="eentropy">      0.00058423 </i>
    <i name="bandstr">    -90.36472963 </i>
    <i name="atom">    197.04175453 </i>
    <i name="e_fr_energy">    -24.03027156 </i>
    <i name="e_wo_entrp">    -24.03085579 </i>
    <i name="e_0_energy">    -24.03027605 </i>
   </energy>
  </scstep>
  <scstep>
   <time name="diag">    0.02    0.02</time>
   <time name="diis">    0.12    0.12</time>
   <time name="orth">    0.00    0.00</time>
   <time name="total">    0.40    0.42</time>
   <energy>
    <i name="e_fr_energy">    -24.03026583 </i>
    <i name="e_wo_entrp">    -24.03085320 </i>
    <i name="e_0_energy">    -24.03027034 </i>
   </energy>
  </scstep>
  <scstep>
   <time name="diag">    0.02    0.02</time>
   <time name="diis">    0.12    0.12</time>
   <time name="orth">    0.00    0.00</time>
   <time name="total">    0.42    0.44</time>
   <energy>
    <i name="e_fr_energy">    -24.03025841 </i>
    <i name="e_wo_entrp">    -24.03087590 </i>
    <i name="e_0_energy">    -24.03026316 </i>
   </energy>
  </scstep>
  <scstep>
   <time name="diag">    0.02    0.02</time>
   <time name="diis">    0.12    0.12</time>
   <time name="orth">    0.00    0.00</time>
   <time name="total">    0.40    0.42</time>
   <energy>
    <i name="e_fr_energy">    -24.03025409 </i>
    <i name="e_wo_entrp">    -24.03091119 </i>
    <i name="e_0_energy">    -24.03025915 </i>
   </energy>
  </scstep>
  <scstep>
   <time name="diag">    0.02    0.02</time>
   <time name="diis">    0.12    0.12</time>
   <time name="orth">    0.00    0.00</time>
   <time name="total">    0.40    0.43</time>
   <energy>
    <i name="e_fr_energy">    -24.03025776 </i>
    <i name="e_wo_entrp">    -24.03085479 </i>
    <i name="e_0_energy">    -24.03026235 </i>
   </energy>
  </scstep>
  <scstep>
   <time name="diag">    0.02    0.02</time>
   <time name="diis">    0.09    0.10</time>
   <time name="orth">    0.00    0.00</time>
   <time name="total">    0.37    0.40</time>
   <energy>
    <i name="e_fr_energy">    -24.03025912 </i>
    <i name="e_wo_entrp">    -24.03086605 </i>
    <i name="e_0_energy">    -24.03026379 </i>
   </energy>
  </scstep>
  <scstep>
   <time name="diag">    0.02    0.02</time>
   <time name="diis">    0.12    0.13</time>
   <time name="orth">    0.00    0.00</time>
   <time name="total">    0.40    0.43</time>
   <energy>
    <i name="e_fr_energy">    -24.03027032 </i>
    <i name="e_wo_entrp">    -24.03085379 </i>
    <i name="e_0_energy">    -24.03027481 </i>
   </energy>
  </scstep>
  <scstep>
   <time name="diag">    0.02    0.02</time>
   <time name="diis">    0.12    0.12</time>
   <time name="orth">    0.00    0.00</time>
   <time name="total">    0.41    0.43</time>
   <energy>
    <i name="e_fr_energy">    -24.03026092 </i>
    <i name="e_wo_entrp">    -24.03086059 </i>
    <i name="e_0_energy">    -24.03026553 </i>
   </energy>
  </scstep>
  <scstep>
   <time name="diag">    0.02    0.02</time>
   <time name="diis">    0.12    0.13</time>
   <time name="orth">    0.00    0.00</time>
   <time name="total">    0.41    0.44</time>
   <energy>
    <i name="e_fr_energy">    -24.03025791 </i>
    <i name="e_wo_entrp">    -24.03088214 </i>
    <i name="e_0_energy">    -24.03026271 </i>
   </energy>
  </scstep>
  <scstep>
   <time name="diag">    0.02    0.02</time>
   <time name="diis">    0.10    0.10</time>
   <time name="orth">    0.00    0.00</time>
   <time name="total">    0.35    0.38</time>
   <energy>
    <i name="alphaZ">      0.03028135 </i>
    <i name="ewald">    193.00755634 </i>
    <i name="hartreedc">   -347.69866575 </i>
    <i name="XCdc">     24.74041589 </i>
    <i name="pawpsdc">    466.44680076 </i>
    <i name="pawaedc">   -467.23421273 </i>
    <i name="eentropy">      0.00062911 </i>
    <i name="bandstr">    -90.36481713 </i>
    <i name="atom">    197.04175453 </i>
    <i name="e_fr_energy">    -24.03025763 </i>
    <i name="e_wo_entrp">    -24.03088674 </i>
    <i name="e_0_energy">    -24.03026247 </i>
   </energy>
  </scstep>
  <structure>
   <crystal>
    <varray name="basis" >
     <v>      16.32993162      -8.16496581      -8.16496581 </v>
     <v>       0.00000000      14.14213562     -14.14213562 </v>
     <v>      11.54700538      11.54700538      11.54700538 </v>
    </varray>
    <i name="volume">   8000.00000000 </i>
    <varray name="rec_basis" >
     <v>       0.04082483      -0.02041241      -0.02041241 </v>
     <v>       0.00000000       0.03535534      -0.03535534 </v>
     <v>       0.02886751       0.02886751       0.02886751 </v>
    </varray>
   </crystal>
   <varray name="positions" >
    <v>       0.35003139       0.54806270       0.51973619 </v>
    <v>       0.34134358       0.60224573       0.52047117 </v>
    <v>       0.39241237       0.53690292       0.48671388 </v>
    <v>       0.30508810       0.52267187       0.50128981 </v>
    <v>       0.36137177       0.53057747       0.57047007 </v>
   </varray>
  </structure>
  <varray name="forces" >
   <v>       0.02975572       0.02742500      -0.02502181 </v>
   <v>       0.00208703      -0.01450086       0.00921088 </v>
   <v>      -0.00790667       0.00168514       0.00647430 </v>
   <v>      -0.02201801      -0.01272364       0.00915539 </v>
   <v>      -0.00191807      -0.00188562       0.00018124 </v>
  </varray>
  <varray name="stress" >
   <v>      -0.07331954       0.00309077      -0.00243524 </v>
   <v>       0.00309077      -0.07682702       0.00051860 </v>
   <v>      -0.00243524       0.00051860      -0.07696350 </v>
  </varray>
  <energy>
   <i name="e_fr_energy">    -24.03230323 </i>
   <i name="e_wo_entrp">    -24.03251293 </i>
   <i name="e_0_energy">      0.00062911 </i>
  </energy>
  <time name="totalsc">    4.95    5.29</time>
 </calculation>
 <calculation>
  <scstep>
   <time name="dav">    0.26    0.26</time>
   <time name="total">    0.51    0.52</time>
   <energy>
    <i name="alphaZ">      0.03028135 </i>
    <i name="ewald">    193.00771132 </i>
    <i name="hartreedc">   -347.69874430 </i>
    <i name="XCdc">     24.74042004 </i>
    <i name="pawpsdc">    466.44644344 </i>
    <i name="pawaedc">   -467.23385528 </i>
    <i name="eentropy">      0.00063554 </i>
    <i name="bandstr">    -90.36492586 </i>
    <i name="atom">    197.04175453 </i>
    <i name="e_fr_energy">    -24.03027921 </i>
    <i name="e_wo_entrp">    -24.03091475 </i>
    <i name="e_0_energy">    -24.03028410 </i>
   </energy>
  </scstep>
  <scstep>
   <time name="diag">    0.02    0.02</time>
   <time name="diis">    0.13    0.13</time>
   <time name="orth">    0.00    0.00</time>
   <time name="total">    0.41    0.43</time>
   <energy>
    <i name="e_fr_energy">    -24.03027821 </i>
    <i name="e_wo_entrp">    -24.03091885 </i>
    <i name="e_0_energy">    -24.03028314 </i>
   </energy>
  </scstep>
  <scstep>
   <time name="diag">    0.02    0.02</time>
   <time name="diis">    0.11    0.11</time>
   <time name="orth">    0.00    0.00</time>
   <time name="total">    0.36    0.38</time>
   <energy>
    <i name="alphaZ">      0.03028135 </i>
    <i name="ewald">    193.00771132 </i>
    <i name="hartreedc">   -347.69886236 </i>
    <i name="XCdc">     24.74042401 </i>
    <i name="pawpsdc">    466.38350480 </i>
    <i name="pawaedc">   -467.17091506 </i>
    <i name="eentropy">      0.00064579 </i>
    <i name="bandstr">    -90.36482229 </i>
    <i name="atom">    197.04175453 </i>
    <i name="e_fr_energy">    -24.03027790 </i>
    <i name="e_wo_entrp">    -24.03092369 </i>
    <i name="e_0_energy">    -24.03028287 </i>
   </energy>
  </scstep>
  <structure>
   <crystal>
    <varray name="basis" >
     <v>      16.32993162      -8.16496581      -8.16496581 </v>
     <v>       0.00000000      14.14213562     -14.14213562 </v>
     <v>      11.54700538      11.54700538      11.54700538 </v>
    </varray>
    <i name="volume">   8000.00000000 </i>
    <varray name="rec_basis" >
     <v>       0.04082483      -0.02041241      -0.02041241 </v>
     <v>       0.00000000       0.03535534      -0.03535534 </v>
     <v>       0.02886751       0.02886751       0.02886751 </v>
    </varray>
   </crystal>
   <varray name="positions" >
    <v>       0.35005007       0.54808309       0.51973976 </v>
    <v>       0.34134534       0.60223596       0.52046775 </v>
    <v>       0.39240418       0.53690419       0.48671829 </v>
    <v>       0.30507594       0.52266391       0.50128316 </v>
    <v>       0.36137168       0.53057354       0.57047217 </v>
   </varray>
  </structure>
  <varray name="forces" >
   <v>       0.00222572       0.01257514      -0.00119579 </v>
   <v>      -0.00106833      -0.00235684      -0.00053835 </v>
   <v>      -0.00059128      -0.00315964       0.00216251 </v>
   <v>      -0.00035721      -0.00347429      -0.00128757 </v>
   <v>      -0.00020889      -0.00358438       0.00085920 </v>
  </varray>
  <varray name="stress" >
   <v>      -0.07640868       0.00051589       0.00038981 </v>
   <v>       0.00051590      -0.07514376      -0.00014767 </v>
   <v>       0.00038981      -0.00014767      -0.07552880 </v>
  </varray>
  <energy>
   <i name="e_fr_energy">    -24.03232349 </i>
   <i name="e_wo_entrp">    -24.03253875 </i>
   <i name="e_0_energy">      0.00064579 </i>
  </energy>
  <time name="totalsc">    2.07    2.23</time>
 </calculation>
 <calculation>
  <scstep>
   <time name="dav">    0.25    0.25</time>
   <time name="total">    0.50    0.51</time>
   <energy>
    <i name="alphaZ">      0.03028135 </i>
    <i name="ewald">    193.00816521 </i>
    <i name="hartreedc">   -347.69912848 </i>
    <i name="XCdc">     24.74043836 </i>
    <i name="pawpsdc">    466.40015162 </i>
    <i name="pawaedc">   -467.18756281 </i>
    <i name="eentropy">      0.00062272 </i>
    <i name="bandstr">    -90.36499642 </i>
    <i name="atom">    197.04175453 </i>
    <i name="e_fr_energy">    -24.03027391 </i>
    <i name="e_wo_entrp">    -24.03089664 </i>
    <i name="e_0_energy">    -24.03027870 </i>
   </energy>
  </scstep>
  <scstep>
   <time name="diag">    0.02    0.02</time>
   <time name="diis">    0.12    0.12</time>
   <time name="orth">    0.00    0.00</time>
   <time name="total">    0.40    0.42</time>
   <energy>
    <i name="e_fr_energy">    -24.03027119 </i>
    <i name="e_wo_entrp">    -24.03090726 </i>
    <i name="e_0_energy">    -24.03027609 </i>
   </energy>
  </scstep>
  <scstep>
   <time name="diag">    0.02    0.02</time>
   <time name="diis">    0.12    0.12</time>
   <time name="orth">    0.00    0.00</time>
   <time name="total">    0.40    0.42</time>
   <energy>
    <i name="e_fr_energy">    -24.03026750 </i>
    <i name="e_wo_entrp">    -24.03093650 </i>
    <i name="e_0_energy">    -24.03027265 </i>
   </energy>
  </scstep>
  <scstep>
   <time name="diag">    0.02    0.02</time>
   <time name="diis">    0.09    0.09</time>
   <time name="orth">    0.00    0.00</time>
   <time name="total">    0.34    0.37</time>
   <energy>
    <i name="alphaZ">      0.03028135 </i>
    <i name="ewald">    193.00816521 </i>
    <i name="hartreedc">   -347.69933026 </i>
    <i name="XCdc">     24.74044762 </i>
    <i name="pawpsdc">    466.44943693 </i>
    <i name="pawaedc">   -467.23685371 </i>
    <i name="eentropy">      0.00063549 </i>
    <i name="bandstr">    -90.36480467 </i>
    <i name="atom">    197.04175453 </i>
    <i name="e_fr_energy">    -24.03026750 </i>
    <i name="e_wo_entrp">    -24.03090299 </i>
    <i name="e_0_energy">    -24.03027239 </i>
   </energy>
  </scstep>
  <structure>
   <crystal>
    <varray name="basis" >
     <v>      16.32993162      -8.16496581      -8.16496581 </v>
     <v>       0.00000000      14.14213562     -14.14213562 </v>
     <v>      11.54700538      11.54700538      11.54700538 </v>
    </varray>
    <i name="volume">   8000.00000000 </i>
    <varray name="rec_basis" >
     <v>       0.04082483      -0.02041241      -0.02041241 </v>
     <v>       0.00000000       0.03535534      -0.03535534 </v>
     <v>       0.02886751       0.02886751       0.02886751 </v>
    </varray>
   </crystal>
   <varray name="positions" >
    <v>       0.35004047       0.54810102       0.51975103 </v>
    <v>       0.34134452       0.60223685       0.52045793 </v>
    <v>       0.39240444       0.53689748       0.48672049 </v>
    <v>       0.30508257       0.52266504       0.50128087 </v>
    <v>       0.36137521       0.53056031       0.57047080 </v>
   </varray>
  </structure>
  <varray name="forces" >
   <v>      -0.01382375      -0.03574623      -0.00177399 </v>
   <v>       0.00419365       0.01433302      -0.00655192 </v>
   <v>      -0.00128189       0.01270741       0.00822853 </v>
   <v>       0.00552655       0.00215179      -0.00177950 </v>
   <v>       0.00538544       0.00655401       0.00187688 </v>
  </varray>
  <varray name="stress" >
   <v>      -0.07716939       0.00208381       0.00215735 </v>
   <v>       0.00208381      -0.07449493      -0.00279199 </v>
   <v>       0.00215735      -0.00279199      -0.07543215 </v>
  </varray>
  <energy>
   <i name="e_fr_energy">    -24.03231306 </i>
   <i name="e_wo_entrp">    -24.03252489 </i>
   <i name="e_0_energy">      0.00063549 </i>
  </energy>
  <time name="totalsc">    2.44    2.62</time>
 </calculation>
 <calculation>
  <scstep>
   <time name="dav">    0.25    0.25</time>
   <time name="total">    1.39    1.40</time>
   <energy>
    <i name="alphaZ">      0.03028135 </i>
    <i name="ewald">    193.00786435 </i>
    <i name="hartreedc">   -347.69904515 </i>
    <i name="XCdc">     24.74043216 </i>
    <i name="pawpsdc">    466.44786893 </i>
    <i name="pawaedc">   -467.23528455 </i>
    <i name="eentropy">      0.00061768 </i>
    <i name="bandstr">    -90.36476821 </i>
    <i name="atom">    197.04175453 </i>
    <i name="e_fr_energy">    -24.03027890 </i>
    <i name="e_wo_entrp">    -24.03089659 </i>
    <i name="e_0_energy">    -24.03028366 </i>
   </energy>
  </scstep>
  <scstep>
   <time name="diag">    0.02    0.02</time>
   <time name="diis">    0.10    0.10</time>
   <time name="orth">    0.00    0.00</time>
   <time name="total">    0.38    0.40</time>
   <energy>
    <i name="e_fr_energy">    -24.03028092 </i>
    <i name="e_wo_entrp">    -24.03090417 </i>
    <i name="e_0_energy">    -24.03028571 </i>
   </energy>
  </scstep>
  <scstep>
   <time name="diag">    0.02    0.02</time>
   <time name="diis">    0.11    0.11</time>
   <time name="orth">    0.00    0.00</time>
   <time name="total">    0.36    0.38</time>
   <energy>
    <i name="alphaZ">      0.03028135 </i>
    <i name="ewald">    193.00786435 </i>
    <i name="hartreedc">   -347.69888986 </i>
    <i name="XCdc">     24.74042869 </i>
    <i name="pawpsdc">    466.45852117 </i>
    <i name="pawaedc">   -467.24593432 </i>
    <i name="eentropy">      0.00063680 </i>
    <i name="bandstr">    -90.36494308 </i>
    <i name="atom">    197.04175453 </i>
    <i name="e_fr_energy">    -24.03028038 </i>
    <i name="e_wo_entrp">    -24.03091718 </i>
    <i name="e_0_energy">    -24.03028528 </i>
   </energy>
  </scstep>
  <structure>
   <crystal>
    <varray name="basis" >
     <v>      16.32993162      -8.16496581      -8.16496581 </v>
     <v>       0.00000000      14.14213562     -14.14213562 </v>
     <v>      11.54700538      11.54700538      11.54700538 </v>
    </varray>
    <i name="volume">   8000.00000000 </i>
    <varray name="rec_basis" >
     <v>       0.04082483      -0.02041241      -0.02041241 </v>
     <v>       0.00000000       0.03535534      -0.03535534 </v>
     <v>       0.02886751       0.02886751       0.02886751 </v>
    </varray>
   </crystal>
   <varray name="positions" >
    <v>       0.35004524       0.54809230       0.51974062 </v>
    <v>       0.34134592       0.60224177       0.52046513 </v>
    <v>       0.39239862       0.53689742       0.48672340 </v>
    <v>       0.30508269       0.52266263       0.50127886 </v>
    <v>       0.36137474       0.53056657       0.57047313 </v>
   </varray>
  </structure>
  <varray name="forces" >
   <v>      -0.00647422      -0.00625081       0.00013780 </v>
   <v>       0.00307842       0.00371387      -0.00094860 </v>
   <v>       0.00026516       0.00082198       0.00188996 </v>
   <v>       0.00245935      -0.00071786      -0.00086842 </v>
   <v>       0.00067129       0.00243282      -0.00021074 </v>
  </varray>
  <varray name="stress" >
   <v>      -0.07697545       0.00109782       0.00074102 </v>
   <v>       0.00109782      -0.07456772      -0.00040651 </v>
   <v>       0.00074103      -0.00040651      -0.07551494 </v>
  </varray>
  <energy>
   <i name="e_fr_energy">    -24.03232596 </i>
   <i name="e_wo_entrp">    -24.03253822 </i>
   <i name="e_0_energy">      0.00063680 </i>
  </energy>
  <time name="totalsc">    2.87    2.99</time>
  <eigenvalues>
   <array>
    <dimension dim="1">band</dimension>
    <dimension dim="2">kpoint</dimension>
    <dimension dim="3">spin</dimension>
    <field>eigene</field>
    <field>occ</field>
    <set>
     <set comment="spin 1">
      <set comment="kpoint 1">
       <r>  -16.9914    1.0000 </r>
       <r>   -9.4037    1.0005 </r>
       <r>   -9.4021    1.0010 </r>
       <r>   -9.3852    0.9985 </r>
       <r>   -0.4123    0.0000 </r>
       <r>    0.0691    0.0000 </r>
       <r>    0.2966    0.0000 </r>
       <r>    0.3027    0.0000 </r>
      </set>
     </set>
    </set>
   </array>
  </eigenvalues>
  <separator name="orbital magnetization" >
   <v name="MAGDIPOLOUT">      0.00000000      0.00000000      0.00000000</v>
  </separator>
 </calculation>
 <structure name="finalpos" >
  <crystal>
   <varray name="basis" >
    <v>      16.32993162      -8.16496581      -8.16496581 </v>
    <v>       0.00000000      14.14213562     -14.14213562 </v>
    <v>      11.54700538      11.54700538      11.54700538 </v>
   </varray>
   <i name="volume">   8000.00000000 </i>
   <varray name="rec_basis" >
    <v>       0.04082483      -0.02041241      -0.02041241 </v>
    <v>       0.00000000       0.03535534      -0.03535534 </v>
    <v>       0.02886751       0.02886751       0.02886751 </v>
   </varray>
  </crystal>
  <varray name="positions" >
   <v>       0.35004524       0.54809230       0.51974062 </v>
   <v>       0.34134592       0.60224177       0.52046513 </v>
   <v>       0.39239862       0.53689742       0.48672340 </v>
   <v>       0.30508269       0.52266263       0.50127886 </v>
   <v>       0.36137474       0.53056657       0.57047313 </v>
  </varray>
  <varray name="selective"  type="logical" >
   <v type="logical" >  T  T  T </v>
   <v type="logical" >  T  T  T </v>
   <v type="logical" >  T  T  T </v>
   <v type="logical" >  T  T  T </v>
   <v type="logical" >  T  T  T </v>
  </varray>
  <nose>
   <v>      -3.00000000       0.00000000       0.00010000       0.00010000 </v>
  </nose>
 </structure>
</modeling>
