 vasp.5.3.2 13Sep12 (build Mar 13 2013 15:03:29) complex                         
 executed on             LinuxPgi date 2017.08.06  12:06:39
 running on   16 total cores
 distrk:  each k-point on   16 cores,    1 groups
 distr:  one band on NCORES_PER_BAND=  16 cores,    1 groups


--------------------------------------------------------------------------------------------------------


 INCAR:
 POTCAR:   PAW_GGA C 05Jan2001                    
 POTCAR:   PAW_GGA H 07Jul1998                    

 ----------------------------------------------------------------------------- 
|                                                                             |
|           W    W    AA    RRRRR   N    N  II  N    N   GGGG   !!!           |
|           W    W   A  A   R    R  NN   N  II  NN   N  G    G  !!!           |
|           W    W  A    A  R    R  N N  N  II  N N  N  G       !!!           |
|           W WW W  AAAAAA  RRRRR   N  N N  II  N  N N  G  GGG   !            |
|           WW  WW  A    A  R   R   N   NN  II  N   NN  G    G                |
|           W    W  A    A  R    R  N    N  II  N    N   GGGG   !!!           |
|                                                                             |
|      For optimal performance we recommend that you set                      |
|        NPAR = 4 - approx SQRT( number of cores)                             |
|      (number of cores/NPAR must be integer)                                 |
|      This setting will greatly improve the performance of VASP for DFT.     |
|      The default NPAR=number of cores might be grossly inefficient          |
|      on modern multi-core architectures or massively parallel machines.     |
|      Do your own testing.                                                   |
|      Unfortunately you need to use the default for hybrid, GW and RPA       |
|      calculations.                                                          |
|                                                                             |
 ----------------------------------------------------------------------------- 

 POTCAR:   PAW_GGA C 05Jan2001                    
   VRHFIN =C: s2p2                                                              
   LEXCH  = 91                                                                  
   EATOM  =   147.4688 eV,   10.8386 Ry                                         
                                                                                
   TITEL  = PAW_GGA C 05Jan2001                                                 
   LULTRA =        F    use ultrasoft PP ?                                      
   IUNSCR =        0    unscreen: 0-lin 1-nonlin 2-no                           
   RPACOR =     .000    partial core radius                                     
   POMASS =   12.011; ZVAL   =    4.000    mass and valenz                      
   RCORE  =    1.500    outmost cutoff radius                                   
   RWIGS  =    1.630; RWIGS  =     .863    wigner-seitz radius (au A)           
   ENMAX  =  400.000; ENMIN  =  300.000 eV                                      
   ICORE  =        2    local potential                                         
   LCOR   =        T    correct aug charges                                     
   LPAW   =        T    paw PP                                                  
   EAUG   =  644.873                                                            
   DEXC   =     .000                                                            
   RMAX   =    2.266    core radius for proj-oper                               
   RAUG   =    1.300    factor for augmentation sphere                          
   RDEP   =    1.501    radius for radial grids                                 
   RDEPT  =    1.300    core radius for aug-charge                              
   QCUT   =   -5.516; QGAM   =   11.033    optimization parameters              
                                                                                
   Description                                                                  
     l     E      TYP  RCUT    TYP  RCUT                                        
     0   .000     23  1.200                                                     
     0   .000     23  1.200                                                     
     1   .000     23  1.500                                                     
     1  2.500     23  1.500                                                     
     2   .000      7  1.500                                                     
  local pseudopotential read in
  atomic valenz-charges read in
  non local Contribution for L=            0  read in
    real space projection operators read in
  non local Contribution for L=            0  read in
    real space projection operators read in
  non local Contribution for L=            1  read in
    real space projection operators read in
  non local Contribution for L=            1  read in
    real space projection operators read in
    PAW grid and wavefunctions read in

   number of l-projection  operators is LMAX  =            4
   number of lm-projection operators is LMMAX =            8

 POTCAR:   PAW_GGA H 07Jul1998                    
   VRHFIN =H: ultrasoft test                                                    
   LEXCH  = 91                                                                  
   EATOM  =    12.5313 eV,     .9210 Ry                                         
                                                                                
   TITEL  = PAW_GGA H 07Jul1998                                                 
   LULTRA =        F    use ultrasoft PP ?                                      
   IUNSCR =        0    unscreen: 0-lin 1-nonlin 2-no                           
   RPACOR =     .000    partial core radius                                     
   POMASS =    1.000; ZVAL   =    1.000    mass and valenz                      
   RCORE  =    1.100    outmost cutoff radius                                   
   RWIGS  =     .700; RWIGS  =     .370    wigner-seitz radius (au A)           
   ENMAX  =  250.000; ENMIN  =  200.000 eV                                      
   RCLOC  =     .701    cutoff for local pot                                    
   LCOR   =        T    correct aug charges                                     
   LPAW   =        T    paw PP                                                  
   EAUG   =  400.000                                                            
   RMAX   =    2.174    core radius for proj-oper                               
   RAUG   =    1.200    factor for augmentation sphere                          
   RDEP   =    1.112    core radius for depl-charge                             
   QCUT   =   -5.749; QGAM   =   11.498    optimization parameters              
                                                                                
   Description                                                                  
     l     E      TYP  RCUT    TYP  RCUT                                        
     0   .000     23  1.100                                                     
     0   .500     23  1.100                                                     
     1  -.300     23  1.100                                                     
  local pseudopotential read in
  atomic valenz-charges read in
  non local Contribution for L=            0  read in
    real space projection operators read in
  non local Contribution for L=            0  read in
    real space projection operators read in
  non local Contribution for L=            1  read in
    real space projection operators read in
    PAW grid and wavefunctions read in

   number of l-projection  operators is LMAX  =            3
   number of lm-projection operators is LMMAX =            5


 ----------------------------------------------------------------------------- 
|                                                                             |
|  ADVICE TO THIS USER RUNNING 'VASP/VAMP'   (HEAR YOUR MASTER'S VOICE ...):  |
|                                                                             |
|      You have a (more or less) 'small supercell' and for smaller cells      |
|      it is recommended  to use the reciprocal-space projection scheme!      |
|      The real space optimization is not  efficient for small cells and it   |
|      is also less accurate ...                                              |
|      Therefore set LREAL=.FALSE. in the  INCAR file                         |
|                                                                             |
 ----------------------------------------------------------------------------- 

 Optimization of the real space projectors (new method)

 maximal supplied QI-value         = 25.13
 optimisation between [QCUT,QGAM] = [ 10.05, 20.36] = [ 28.30,116.06] Ry 
 Optimized for a Real-space Cutoff    1.30 Angstroem

   l    n(q)    QCUT    max X(q) W(low)/X(q) W(high)/X(q)  e(spline) 
   0      8    10.053     5.568    0.43E-04    0.43E-04    0.60E-07
   0      8    10.053    69.244    0.49E-03    0.71E-03    0.18E-06
   1      7    10.053     2.779    0.78E-04    0.12E-03    0.11E-06
   1      7    10.053     4.506    0.23E-03    0.19E-03    0.21E-06
 Optimization of the real space projectors (new method)

 maximal supplied QI-value         = 34.20
 optimisation between [QCUT,QGAM] = [  9.92, 20.18] = [ 27.55,114.04] Ry 
 Optimized for a Real-space Cutoff    1.26 Angstroem

   l    n(q)    QCUT    max X(q) W(low)/X(q) W(high)/X(q)  e(spline) 
   0      8     9.919     4.435    0.80E-04    0.66E-04    0.51E-07
   0      8     9.919    16.011    0.48E-03    0.23E-03    0.28E-06
   1      7     9.919     4.617    0.17E-03    0.74E-03    0.30E-06
 PAW_GGA C 05Jan2001                    :
 energy of atom  1       EATOM= -147.4688
 kinetic energy error for atom=    0.0288 (will be added to EATOM!!)
 PAW_GGA H 07Jul1998                    :
 energy of atom  2       EATOM=  -12.5313
 kinetic energy error for atom=    0.0098 (will be added to EATOM!!)


 POSCAR:  C H                                    
  positions in cartesian coordinates
  No initial velocities read in
 exchange correlation table for  LEXCH =        7
   RHO(1)=    0.500       N(1)  =     2000
   RHO(2)=  100.500       N(2)  =     4000

 VTST: version 3.0, (09/19/12)

 CHAIN: initializing optimizer
 
 OPT: Using VASP Conjugate-Gradient optimizer
 CHAIN: Read ICHAIN             0

 POSCAR:  C H                                    
  positions in cartesian coordinates
  No initial velocities read in



--------------------------------------------------------------------------------------------------------


 ion  position               nearest neighbor table
   1  0.000  0.000  0.054-   2 1.08   4 1.10   3 1.10   5 1.10
   2  0.000  0.000  1.000-   1 1.08
   3  0.949  1.000  0.074-   1 1.10
   4  0.026  0.956  0.074-   1 1.10
   5  0.025  0.044  0.074-   1 1.10


IMPORTANT INFORMATION: All symmetrisations will be switched off!
NOSYMM: (Re-)initialisation of all symmetry stuff for point group C_1.



 KPOINTS: Gamma-point only                        
  k-points in reciprocal lattice


--------------------------------------------------------------------------------------------------------




 Dimension of arrays:
   k-points           NKPTS =      1   k-points in BZ     NKDIM =      1   number of bands    NBANDS=      8
   number of dos      NEDOS =    301   number of ions     NIONS =      5
   non local maximal  LDIM  =      4   non local SUM 2l+1 LMDIM =      8
   total plane-waves  NPLWV = 941192
   max r-space proj   IRMAX =   1135   max aug-charges    IRDMAX=   1588
   dimension x,y,z NGX =    98 NGY =   98 NGZ =   98
   dimension x,y,z NGXF=   196 NGYF=  196 NGZF=  196
   support grid    NGXF=   196 NGYF=  196 NGZF=  196
   ions per type =               1   4
 NGX,Y,Z   is equivalent  to a cutoff of   8.15,  8.15,  8.15 a.u.
 NGXF,Y,Z  is equivalent  to a cutoff of  16.29, 16.29, 16.29 a.u.


 I would recommend the setting:
   dimension x,y,z NGX =    98 NGY =   98 NGZ =   98
 SYSTEM =  unknown system                          
 POSCAR =   C H                                    

 Startparameter for this run:
   NWRITE =      2    write-flag & timer
   PREC   = normal    normal or accurate (medium, high low for compatibility)
   ISTART =      0    job   : 0-new  1-cont  2-samecut
   ICHARG =      2    charge: 1-file 2-atom 10-const
   ISPIN  =      1    spin polarized calculation?
   LNONCOLLINEAR =      F non collinear calculations
   LSORBIT =      F    spin-orbit coupling
   INIWAV =      1    electr: 0-lowe 1-rand  2-diag
   LASPH  =      F    aspherical Exc in radial PAW
   METAGGA=      F    non-selfconsistent MetaGGA calc.

 Electronic Relaxation 1
   ENCUT  =  400.0 eV  29.40 Ry    5.42 a.u.  32.61 32.61 32.61*2*pi/ulx,y,z
   ENINI  =  400.0     initial cutoff
   ENAUG  =  644.9 eV  augmentation charge cutoff
   NELM   =    500;   NELMIN=  2; NELMDL= -5     # of ELM steps 
   EDIFF  = 0.1E-05   stopping-criterion for ELM
   LREAL  =      T    real-space projection
   NLSPLINE    = F    spline interpolate recip. space projectors
   LCOMPAT=      F    compatible to vasp.4.4
   GGA_COMPAT  = T    GGA compatible to vasp.4.4-vasp.4.6
   LMAXPAW     = -100 max onsite density
   LMAXMIX     =    2 max onsite mixed and CHGCAR
   VOSKOWN=      1    Vosko Wilk Nusair interpolation
   ROPT   =   -0.00050  -0.00050
 Ionic relaxation
   EDIFFG = -.5E-01   stopping-criterion for IOM
   NSW    =   2500    number of steps for IOM
   NBLOCK =      1;   KBLOCK =   2500    inner block; outer block 
   IBRION =      2    ionic relax: 0-MD 1-quasi-New 2-CG
   NFREE  =      1    steps in history (QN), initial steepest desc. (CG)
   ISIF   =      0    stress and relaxation
   IWAVPR =     11    prediction:  0-non 1-charg 2-wave 3-comb
   ISYM   =      0    0-nonsym 1-usesym 2-fastsym
   LCORR  =      T    Harris-Foulkes like correction to forces

   POTIM  = 0.2500    time-step for ionic-motion
   TEIN   =    0.0    initial temperature
   TEBEG  =    0.0;   TEEND  =   0.0 temperature during run
   SMASS  =  -3.00    Nose mass-parameter (am)
   estimated Nose-frequenzy (Omega)   =  0.10E-29 period in steps =****** mass=  -0.914E-26a.u.
   SCALEE = 1.0000    scale energy and forces
   NPACO  =    256;   APACO  = 16.0  distance and # of slots for P.C.
   PSTRESS=    0.0 pullay stress

  Mass of Ions in am
   POMASS =  12.01  1.00
  Ionic Valenz
   ZVAL   =   4.00  1.00
  Atomic Wigner-Seitz radii
   RWIGS  =  -1.00 -1.00
  virtual crystal weights 
   VCA    =   1.00  1.00
   NELECT =       8.0000    total number of electrons
   NUPDOWN=      -1.0000    fix difference up-down

 DOS related values:
   EMIN   =  10.00;   EMAX   =-10.00  energy-range for DOS
   EFERMI =   0.00
   ISMEAR =     0;   SIGMA  =   0.10  broadening in eV -4-tet -1-fermi 0-gaus

 Electronic relaxation 2 (details)
   IALGO  =     68    algorithm
   LDIAG  =      T    sub-space diagonalisation (order eigenvalues)
   LSUBROT=      T    optimize rotation matrix (better conditioning)
   TURBO    =      0    0=normal 1=particle mesh
   IRESTART =      0    0=no restart 2=restart with 2 vectors
   NREBOOT  =      0    no. of reboots
   NMIN     =      0    reboot dimension
   EREF     =   0.00    reference energy to select bands
   IMIX   =      4    mixing-type and parameters
     AMIX     =   0.40;   BMIX     =  1.00
     AMIX_MAG =   1.60;   BMIX_MAG =  1.00
     AMIN     =   0.10
     WC   =   100.;   INIMIX=   1;  MIXPRE=   1;  MAXMIX= -45

 Intra band minimization:
   WEIMIN = 0.0010     energy-eigenvalue tresh-hold
   EBREAK =  0.31E-07  absolut break condition
   DEPER  =   0.30     relativ break condition  

   TIME   =   0.40     timestep for ELM

  volume/ion in A,a.u.               =    1600.00     10797.33
  Fermi-wavevector in a.u.,A,eV,Ry     =   0.163710  0.309367  0.364649  0.026801
  Thomas-Fermi vector in A             =   0.862763

 Write flags
   LWAVE  =      F    write WAVECAR
   LCHARG =      F    write CHGCAR
   LVTOT  =      F    write LOCPOT, total local potential
   LVHAR  =      F    write LOCPOT, Hartree potential only
   LELF   =      F    write electronic localiz. function (ELF)
   LORBIT =      0    0 simple, 1 ext, 2 COOP (PROOUT)


 Dipole corrections
   LMONO  =      F    monopole corrections only (constant potential shift)
   LDIPOL =      F    correct potential (dipole corrections)
   IDIPOL =      0    1-x, 2-y, 3-z, 4-all directions 
   EPSILON=  1.0000000 bulk dielectric constant

 Exchange correlation treatment:
   GGA     =    91    GGA type
   LEXCH   =     7    internal setting for exchange type
   VOSKOWN=      1    Vosko Wilk Nusair interpolation
   LHFCALC =     F    Hartree Fock is set to
   LHFONE  =     F    Hartree Fock one center treatment
   AEXX    =    0.0000 exact exchange contribution

 Linear response parameters
   LEPSILON=     F    determine dielectric tensor
   LRPA    =     F    only Hartree local field effects (RPA)
   LNABLA  =     F    use nabla operator in PAW spheres
   LVEL    =     F    velocity operator in full k-point grid
   LINTERFAST=   F  fast interpolation
   KINTER  =     0    interpolate to denser k-point grid
   CSHIFT  =0.1000    complex shift for real part using Kramers Kronig
   OMEGAMAX=  -1.0    maximum frequency
   DEG_THRESHOLD= 0.2000000E-02 threshold for treating states as degnerate
   RTIME   =    0.100 relaxation time in fs

 Orbital magnetization related:
   ORBITALMAG=     F  switch on orbital magnetization
   LCHIMAG   =     F  perturbation theory with respect to B field
   DQ        =  0.001000  dq finite difference perturbation B field



--------------------------------------------------------------------------------------------------------


 conjugate gradient relaxation of ions
 charge density and potential will be updated during run
 non-spin polarized calculation
 RMM-DIIS sequential band-by-band and
  variant of blocked Davidson during initial phase
 perform sub-space diagonalisation
    before iterative eigenvector-optimisation
 modified Broyden-mixing scheme, WC =      100.0
 initial mixing is a Kerker type mixing with AMIX =  0.4000 and BMIX =      1.0000
 Hartree-type preconditioning will be used
 using additional bands             4
 real space projection scheme for non local part
 calculate Harris-corrections to forces 
   (improved forces if not selfconsistent)
 use gradient corrections 
 use of overlap-Matrix (Vanderbilt PP)
 Gauss-broadening in eV      SIGMA  =   0.10


--------------------------------------------------------------------------------------------------------


  energy-cutoff  :      400.00
  volume of cell :     8000.00
      direct lattice vectors                 reciprocal lattice vectors
    20.000000000  0.000000000  0.000000000     0.050000000  0.000000000  0.000000000
     0.000000000 20.000000000  0.000000000     0.000000000  0.050000000  0.000000000
     0.000000000  0.000000000 20.000000000     0.000000000  0.000000000  0.050000000

  length of vectors
    20.000000000 20.000000000 20.000000000     0.050000000  0.050000000  0.050000000



 k-points in units of 2pi/SCALE and weight: Gamma-point only                        
   0.00000000  0.00000000  0.00000000       1.000

 k-points in reciprocal lattice and weights: Gamma-point only                        
   0.00000000  0.00000000  0.00000000       1.000

 position of ions in fractional coordinates (direct lattice) 
   0.00000000  0.00000000  0.05376324
   0.00000000  0.00000000  0.99976324
   0.94896540  0.99955465  0.07371424
   0.02590300  0.95602545  0.07371424
   0.02513160  0.04441995  0.07371424

 position of ions in cartesian coordinates  (Angst):
   0.00000000  0.00000000  1.07526485
   0.00000000  0.00000000 19.99526485
  18.97930800 19.99109300  1.47428485
   0.51806000 19.12050900  1.47428485
   0.50263200  0.88839900  1.47428485



--------------------------------------------------------------------------------------------------------


 k-point  1 :   0.0000 0.0000 0.0000  plane waves:  145165

 maximum and minimum number of plane-waves per node :      9083     9065

 maximum number of plane-waves:    145165
 maximum index in each direction: 
   IXMAX=   32   IYMAX=   32   IZMAX=   32
   IXMIN=  -32   IYMIN=  -32   IZMIN=  -32

 WARNING: aliasing errors must be expected set NGX to 130 to avoid them
 WARNING: aliasing errors must be expected set NGY to 130 to avoid them
 WARNING: aliasing errors must be expected set NGZ to 130 to avoid them
 aliasing errors are usually negligible using standard VASP settings
 and one can safely disregard these warnings

 real space projection operators:
  total allocation   :        216.15 KBytes
  max/ min on nodes  :         41.89          2.62


 parallel 3D FFT for wavefunctions:
    minimum data exchange during FFTs selected (reduces bandwidth)
 parallel 3D FFT for charge:
    minimum data exchange during FFTs selected (reduces bandwidth)


 total amount of memory used by VASP on root node    80933. kBytes
========================================================================

   base      :      30000. kBytes
   nonlr-proj:        141. kBytes
   fftplans  :      18757. kBytes
   grid      :      30870. kBytes
   one-center:          3. kBytes
   wavefun   :       1162. kBytes

 Broyden mixing: mesh for mixing (old mesh)
   NGX = 65   NGY = 65   NGZ = 65
  (NGX  =196   NGY  =196   NGZ  =196)
  gives a total of 274625 points

 initial charge density was supplied:
 charge density of overlapping atoms calculated
 number of electron       8.0000000 magnetization 
 keeping initial charge density in first step


--------------------------------------------------------------------------------------------------------


 Maximum index for non-local projection operator           237
 Maximum index for augmentation-charges           248 (set IRDMAX)


--------------------------------------------------------------------------------------------------------


 First call to EWALD:  gamma=   0.089
 Maximum number of real-space cells 3x 3x 3
 Maximum number of reciprocal cells 3x 3x 3

 FEWALD executed in parallel
    FEWALD:  cpu time    0.00: real time    0.00


----------------------------------------- Iteration    1(   1)  ---------------------------------------


    POTLOK:  cpu time    1.21: real time    1.21
    SETDIJ:  cpu time    0.00: real time    0.00
     EDDAV:  cpu time    0.77: real time    0.77
       DOS:  cpu time    0.00: real time    0.00
    --------------------------------------------
      LOOP:  cpu time    1.98: real time    1.98

 eigenvalue-minimisations  :    32
 total energy-change (2. order) : 0.4122822E+01  (-0.1418319E+03)
 number of electron       8.0000000 magnetization 
 augmentation part        8.0000000 magnetization 

 Free energy of the ion-electron system (eV)
  ---------------------------------------------------
  alpha Z        PSCENC =         0.02989916
  Ewald energy   TEWEN  =       194.24874751
  -1/2 Hartree   DENC   =      -307.37376564
  -exchange  EXHF       =         0.00000000
  -V(xc)+E(xc)   XCENC  =        22.67707224
  PAW double counting   =        41.11719426      -42.35612335
  entropy T*S    EENTRO =         0.00000000
  eigenvalues    EBANDS =      -101.74630490
  atomic energy  EATOM  =       197.52610234
  ---------------------------------------------------
  free energy    TOTEN  =         4.12282163 eV

  energy without entropy =        4.12282163  energy(sigma->0) =        4.12282163


--------------------------------------------------------------------------------------------------------




----------------------------------------- Iteration    1(   2)  ---------------------------------------


     EDDAV:  cpu time    0.60: real time    0.60
       DOS:  cpu time    0.00: real time    0.00
    --------------------------------------------
      LOOP:  cpu time    0.60: real time    0.60

 eigenvalue-minimisations  :    24
 total energy-change (2. order) :-0.3050311E+02  (-0.3050311E+02)
 number of electron       8.0000000 magnetization 
 augmentation part        8.0000000 magnetization 

 Free energy of the ion-electron system (eV)
  ---------------------------------------------------
  alpha Z        PSCENC =         0.02989916
  Ewald energy   TEWEN  =       194.24874751
  -1/2 Hartree   DENC   =      -307.37376564
  -exchange  EXHF       =         0.00000000
  -V(xc)+E(xc)   XCENC  =        22.67707224
  PAW double counting   =        41.11719426      -42.35612335
  entropy T*S    EENTRO =         0.00000000
  eigenvalues    EBANDS =      -132.24941430
  atomic energy  EATOM  =       197.52610234
  ---------------------------------------------------
  free energy    TOTEN  =       -26.38028777 eV

  energy without entropy =      -26.38028777  energy(sigma->0) =      -26.38028777


--------------------------------------------------------------------------------------------------------




----------------------------------------- Iteration    1(   3)  ---------------------------------------


     EDDAV:  cpu time    0.60: real time    0.60
       DOS:  cpu time    0.00: real time    0.00
    --------------------------------------------
      LOOP:  cpu time    0.60: real time    0.60

 eigenvalue-minimisations  :    24
 total energy-change (2. order) :-0.1317723E+01  (-0.1317723E+01)
 number of electron       8.0000000 magnetization 
 augmentation part        8.0000000 magnetization 

 Free energy of the ion-electron system (eV)
  ---------------------------------------------------
  alpha Z        PSCENC =         0.02989916
  Ewald energy   TEWEN  =       194.24874751
  -1/2 Hartree   DENC   =      -307.37376564
  -exchange  EXHF       =         0.00000000
  -V(xc)+E(xc)   XCENC  =        22.67707224
  PAW double counting   =        41.11719426      -42.35612335
  entropy T*S    EENTRO =         0.00000000
  eigenvalues    EBANDS =      -133.56713737
  atomic energy  EATOM  =       197.52610234
  ---------------------------------------------------
  free energy    TOTEN  =       -27.69801084 eV

  energy without entropy =      -27.69801084  energy(sigma->0) =      -27.69801084


--------------------------------------------------------------------------------------------------------




----------------------------------------- Iteration    1(   4)  ---------------------------------------


     EDDAV:  cpu time    0.77: real time    0.77
       DOS:  cpu time    0.00: real time    0.00
    --------------------------------------------
      LOOP:  cpu time    0.77: real time    0.77

 eigenvalue-minimisations  :    32
 total energy-change (2. order) :-0.6648774E-02  (-0.6648774E-02)
 number of electron       8.0000000 magnetization 
 augmentation part        8.0000000 magnetization 

 Free energy of the ion-electron system (eV)
  ---------------------------------------------------
  alpha Z        PSCENC =         0.02989916
  Ewald energy   TEWEN  =       194.24874751
  -1/2 Hartree   DENC   =      -307.37376564
  -exchange  EXHF       =         0.00000000
  -V(xc)+E(xc)   XCENC  =        22.67707224
  PAW double counting   =        41.11719426      -42.35612335
  entropy T*S    EENTRO =         0.00000000
  eigenvalues    EBANDS =      -133.57378615
  atomic energy  EATOM  =       197.52610234
  ---------------------------------------------------
  free energy    TOTEN  =       -27.70465962 eV

  energy without entropy =      -27.70465962  energy(sigma->0) =      -27.70465962


--------------------------------------------------------------------------------------------------------




----------------------------------------- Iteration    1(   5)  ---------------------------------------


     EDDAV:  cpu time    0.77: real time    0.77
       DOS:  cpu time    0.00: real time    0.00
    CHARGE:  cpu time    0.14: real time    0.14
    MIXING:  cpu time    0.04: real time    0.04
    --------------------------------------------
      LOOP:  cpu time    0.95: real time    0.95

 eigenvalue-minimisations  :    32
 total energy-change (2. order) :-0.2180720E-05  (-0.2180422E-05)
 number of electron       8.0000008 magnetization 
 augmentation part        0.2314868 magnetization 

 Broyden mixing:
  rms(total) = 0.85475E+00    rms(broyden)= 0.85450E+00
  rms(prec ) = 0.96456E+00
  weight for this iteration     100.00

 Free energy of the ion-electron system (eV)
  ---------------------------------------------------
  alpha Z        PSCENC =         0.02989916
  Ewald energy   TEWEN  =       194.24874751
  -1/2 Hartree   DENC   =      -307.37376564
  -exchange  EXHF       =         0.00000000
  -V(xc)+E(xc)   XCENC  =        22.67707224
  PAW double counting   =        41.11719426      -42.35612335
  entropy T*S    EENTRO =         0.00000000
  eigenvalues    EBANDS =      -133.57378833
  atomic energy  EATOM  =       197.52610234
  ---------------------------------------------------
  free energy    TOTEN  =       -27.70466180 eV

  energy without entropy =      -27.70466180  energy(sigma->0) =      -27.70466180


--------------------------------------------------------------------------------------------------------




----------------------------------------- Iteration    1(   6)  ---------------------------------------


    POTLOK:  cpu time    1.10: real time    1.10
    SETDIJ:  cpu time    0.00: real time    0.00
    EDDIAG:  cpu time    0.10: real time    0.10
  RMM-DIIS:  cpu time    0.35: real time    0.35
    ORTHCH:  cpu time    0.00: real time    0.00
       DOS:  cpu time    0.00: real time    0.00
    CHARGE:  cpu time    0.14: real time    0.14
    MIXING:  cpu time    0.04: real time    0.04
    --------------------------------------------
      LOOP:  cpu time    1.73: real time    1.73

 eigenvalue-minimisations  :    16
 total energy-change (2. order) : 0.2947453E+01  (-0.5491654E+00)
 number of electron       8.0000009 magnetization 
 augmentation part        0.2038839 magnetization 

 Broyden mixing:
  rms(total) = 0.38408E+00    rms(broyden)= 0.38397E+00
  rms(prec ) = 0.42430E+00
  weight for this iteration     100.00

 eigenvalues of (default mixing * dielectric matrix)
  average eigenvalue GAMMA=   1.3015
  1.3015

 Free energy of the ion-electron system (eV)
  ---------------------------------------------------
  alpha Z        PSCENC =         0.02989916
  Ewald energy   TEWEN  =       194.24874751
  -1/2 Hartree   DENC   =      -327.44637786
  -exchange  EXHF       =         0.00000000
  -V(xc)+E(xc)   XCENC  =        23.90599513
  PAW double counting   =        69.51562052      -70.96143700
  entropy T*S    EENTRO =         0.00000000
  eigenvalues    EBANDS =      -111.57575822
  atomic energy  EATOM  =       197.52610234
  ---------------------------------------------------
  free energy    TOTEN  =       -24.75720843 eV

  energy without entropy =      -24.75720843  energy(sigma->0) =      -24.75720843


--------------------------------------------------------------------------------------------------------




----------------------------------------- Iteration    1(   7)  ---------------------------------------


    POTLOK:  cpu time    1.09: real time    1.09
    SETDIJ:  cpu time    0.00: real time    0.00
    EDDIAG:  cpu time    0.10: real time    0.10
  RMM-DIIS:  cpu time    0.34: real time    0.34
    ORTHCH:  cpu time    0.00: real time    0.00
       DOS:  cpu time    0.00: real time    0.00
    CHARGE:  cpu time    0.14: real time    0.14
    MIXING:  cpu time    0.04: real time    0.04
    --------------------------------------------
      LOOP:  cpu time    1.72: real time    1.72

 eigenvalue-minimisations  :    16
 total energy-change (2. order) : 0.4800271E+00  (-0.1147302E+00)
 number of electron       8.0000009 magnetization 
 augmentation part        0.1932965 magnetization 

 Broyden mixing:
  rms(total) = 0.19726E+00    rms(broyden)= 0.19719E+00
  rms(prec ) = 0.21309E+00
  weight for this iteration     100.00

 eigenvalues of (default mixing * dielectric matrix)
  average eigenvalue GAMMA=   1.8064
  1.4687  2.1441

 Free energy of the ion-electron system (eV)
  ---------------------------------------------------
  alpha Z        PSCENC =         0.02989916
  Ewald energy   TEWEN  =       194.24874751
  -1/2 Hartree   DENC   =      -338.97781218
  -exchange  EXHF       =         0.00000000
  -V(xc)+E(xc)   XCENC  =        24.73558030
  PAW double counting   =        85.39580142      -86.88337484
  entropy T*S    EENTRO =         0.00000000
  eigenvalues    EBANDS =      -100.35212505
  atomic energy  EATOM  =       197.52610234
  ---------------------------------------------------
  free energy    TOTEN  =       -24.27718132 eV

  energy without entropy =      -24.27718132  energy(sigma->0) =      -24.27718132


--------------------------------------------------------------------------------------------------------




----------------------------------------- Iteration    1(   8)  ---------------------------------------


    POTLOK:  cpu time    1.11: real time    1.11
    SETDIJ:  cpu time    0.00: real time    0.00
    EDDIAG:  cpu time    0.10: real time    0.10
  RMM-DIIS:  cpu time    0.34: real time    0.35
    ORTHCH:  cpu time    0.00: real time    0.00
       DOS:  cpu time    0.00: real time    0.00
    CHARGE:  cpu time    0.14: real time    0.14
    MIXING:  cpu time    0.04: real time    0.04
    --------------------------------------------
      LOOP:  cpu time    1.75: real time    1.75

 eigenvalue-minimisations  :    16
 total energy-change (2. order) : 0.1698402E+00  (-0.1679662E-01)
 number of electron       8.0000009 magnetization 
 augmentation part        0.1918201 magnetization 

 Broyden mixing:
  rms(total) = 0.19669E-01    rms(broyden)= 0.19631E-01
  rms(prec ) = 0.31357E-01
  weight for this iteration     100.00

 eigenvalues of (default mixing * dielectric matrix)
  average eigenvalue GAMMA=   1.5713
  1.0983  1.3874  2.2281

 Free energy of the ion-electron system (eV)
  ---------------------------------------------------
  alpha Z        PSCENC =         0.02989916
  Ewald energy   TEWEN  =       194.24874751
  -1/2 Hartree   DENC   =      -344.58582975
  -exchange  EXHF       =         0.00000000
  -V(xc)+E(xc)   XCENC  =        25.28485496
  PAW double counting   =        90.42974157      -91.87429655
  entropy T*S    EENTRO =         0.00000000
  eigenvalues    EBANDS =       -95.16656038
  atomic energy  EATOM  =       197.52610234
  ---------------------------------------------------
  free energy    TOTEN  =       -24.10734115 eV

  energy without entropy =      -24.10734115  energy(sigma->0) =      -24.10734115


--------------------------------------------------------------------------------------------------------




----------------------------------------- Iteration    1(   9)  ---------------------------------------


    POTLOK:  cpu time    1.11: real time    1.11
    SETDIJ:  cpu time    0.00: real time    0.00
    EDDIAG:  cpu time    0.10: real time    0.10
  RMM-DIIS:  cpu time    0.35: real time    0.35
    ORTHCH:  cpu time    0.00: real time    0.00
       DOS:  cpu time    0.00: real time    0.00
    CHARGE:  cpu time    0.14: real time    0.14
    MIXING:  cpu time    0.04: real time    0.04
    --------------------------------------------
      LOOP:  cpu time    1.75: real time    1.75

 eigenvalue-minimisations  :    16
 total energy-change (2. order) : 0.9937187E-02  (-0.1487374E-02)
 number of electron       8.0000009 magnetization 
 augmentation part        0.1909956 magnetization 

 Broyden mixing:
  rms(total) = 0.15185E-01    rms(broyden)= 0.15179E-01
  rms(prec ) = 0.22578E-01
  weight for this iteration     100.00

 eigenvalues of (default mixing * dielectric matrix)
  average eigenvalue GAMMA=   1.9997
  2.8337  2.8337  1.3735  0.9579

 Free energy of the ion-electron system (eV)
  ---------------------------------------------------
  alpha Z        PSCENC =         0.02989916
  Ewald energy   TEWEN  =       194.24874751
  -1/2 Hartree   DENC   =      -346.18167036
  -exchange  EXHF       =         0.00000000
  -V(xc)+E(xc)   XCENC  =        25.37758089
  PAW double counting   =        91.28422439      -92.73223221
  entropy T*S    EENTRO =         0.00000000
  eigenvalues    EBANDS =       -93.65005567
  atomic energy  EATOM  =       197.52610234
  ---------------------------------------------------
  free energy    TOTEN  =       -24.09740396 eV

  energy without entropy =      -24.09740396  energy(sigma->0) =      -24.09740396


--------------------------------------------------------------------------------------------------------




----------------------------------------- Iteration    1(  10)  ---------------------------------------


    POTLOK:  cpu time    1.12: real time    1.12
    SETDIJ:  cpu time    0.00: real time    0.00
    EDDIAG:  cpu time    0.10: real time    0.10
  RMM-DIIS:  cpu time    0.35: real time    0.35
    ORTHCH:  cpu time    0.00: real time    0.00
       DOS:  cpu time    0.00: real time    0.00
    CHARGE:  cpu time    0.14: real time    0.14
    MIXING:  cpu time    0.04: real time    0.04
    --------------------------------------------
      LOOP:  cpu time    1.76: real time    1.76

 eigenvalue-minimisations  :    16
 total energy-change (2. order) : 0.6864177E-02  (-0.2355728E-02)
 number of electron       8.0000009 magnetization 
 augmentation part        0.1903670 magnetization 

 Broyden mixing:
  rms(total) = 0.15335E-01    rms(broyden)= 0.15334E-01
  rms(prec ) = 0.17817E-01
  weight for this iteration     100.00

 eigenvalues of (default mixing * dielectric matrix)
  average eigenvalue GAMMA=   1.8998
  3.5869  2.1239  1.0565  1.3658  1.3658

 Free energy of the ion-electron system (eV)
  ---------------------------------------------------
  alpha Z        PSCENC =         0.02989916
  Ewald energy   TEWEN  =       194.24874751
  -1/2 Hartree   DENC   =      -348.12109612
  -exchange  EXHF       =         0.00000000
  -V(xc)+E(xc)   XCENC  =        25.43800853
  PAW double counting   =        90.72446318      -92.17486872
  entropy T*S    EENTRO =         0.00000000
  eigenvalues    EBANDS =       -91.76179566
  atomic energy  EATOM  =       197.52610234
  ---------------------------------------------------
  free energy    TOTEN  =       -24.09053978 eV

  energy without entropy =      -24.09053978  energy(sigma->0) =      -24.09053978


--------------------------------------------------------------------------------------------------------




----------------------------------------- Iteration    1(  11)  ---------------------------------------


    POTLOK:  cpu time    1.13: real time    1.13
    SETDIJ:  cpu time    0.00: real time    0.00
    EDDIAG:  cpu time    0.10: real time    0.10
  RMM-DIIS:  cpu time    0.35: real time    0.35
    ORTHCH:  cpu time    0.00: real time    0.00
       DOS:  cpu time    0.00: real time    0.00
    CHARGE:  cpu time    0.14: real time    0.14
    MIXING:  cpu time    0.05: real time    0.05
    --------------------------------------------
      LOOP:  cpu time    1.77: real time    1.77

 eigenvalue-minimisations  :    16
 total energy-change (2. order) :-0.1398625E-02  (-0.5858565E-03)
 number of electron       8.0000009 magnetization 
 augmentation part        0.1905324 magnetization 

 Broyden mixing:
  rms(total) = 0.12644E-01    rms(broyden)= 0.12642E-01
  rms(prec ) = 0.14259E-01
  weight for this iteration     100.00

 eigenvalues of (default mixing * dielectric matrix)
  average eigenvalue GAMMA=   2.2639
  4.9003  3.0113  2.3024  1.0374  1.1659  1.1659

 Free energy of the ion-electron system (eV)
  ---------------------------------------------------
  alpha Z        PSCENC =         0.02989916
  Ewald energy   TEWEN  =       194.24874751
  -1/2 Hartree   DENC   =      -348.45448740
  -exchange  EXHF       =         0.00000000
  -V(xc)+E(xc)   XCENC  =        25.46750104
  PAW double counting   =        90.50523929      -91.94689967
  entropy T*S    EENTRO =         0.00000000
  eigenvalues    EBANDS =       -91.46804068
  atomic energy  EATOM  =       197.52610234
  ---------------------------------------------------
  free energy    TOTEN  =       -24.09193840 eV

  energy without entropy =      -24.09193840  energy(sigma->0) =      -24.09193840


--------------------------------------------------------------------------------------------------------




----------------------------------------- Iteration    1(  12)  ---------------------------------------


    POTLOK:  cpu time    1.14: real time    1.14
    SETDIJ:  cpu time    0.00: real time    0.00
    EDDIAG:  cpu time    0.10: real time    0.10
  RMM-DIIS:  cpu time    0.35: real time    0.35
    ORTHCH:  cpu time    0.00: real time    0.00
       DOS:  cpu time    0.00: real time    0.00
    CHARGE:  cpu time    0.14: real time    0.14
    MIXING:  cpu time    0.05: real time    0.05
    --------------------------------------------
      LOOP:  cpu time    1.78: real time    1.78

 eigenvalue-minimisations  :    16
 total energy-change (2. order) :-0.7008944E-02  (-0.2610977E-03)
 number of electron       8.0000009 magnetization 
 augmentation part        0.1904956 magnetization 

 Broyden mixing:
  rms(total) = 0.31436E-02    rms(broyden)= 0.31435E-02
  rms(prec ) = 0.40309E-02
  weight for this iteration     100.00

 eigenvalues of (default mixing * dielectric matrix)
  average eigenvalue GAMMA=   2.2823
  4.7077  3.4201  2.2076  2.2076  0.9885  1.2224  1.2224

 Free energy of the ion-electron system (eV)
  ---------------------------------------------------
  alpha Z        PSCENC =         0.02989916
  Ewald energy   TEWEN  =       194.24874751
  -1/2 Hartree   DENC   =      -348.74924349
  -exchange  EXHF       =         0.00000000
  -V(xc)+E(xc)   XCENC  =        25.45161372
  PAW double counting   =        90.34970011      -91.79468356
  entropy T*S    EENTRO =         0.00000000
  eigenvalues    EBANDS =       -91.16108314
  atomic energy  EATOM  =       197.52610234
  ---------------------------------------------------
  free energy    TOTEN  =       -24.09894735 eV

  energy without entropy =      -24.09894735  energy(sigma->0) =      -24.09894735


--------------------------------------------------------------------------------------------------------




----------------------------------------- Iteration    1(  13)  ---------------------------------------


    POTLOK:  cpu time    1.15: real time    1.15
    SETDIJ:  cpu time    0.00: real time    0.00
    EDDIAG:  cpu time    0.10: real time    0.10
  RMM-DIIS:  cpu time    0.35: real time    0.35
    ORTHCH:  cpu time    0.00: real time    0.00
       DOS:  cpu time    0.00: real time    0.00
    CHARGE:  cpu time    0.14: real time    0.14
    MIXING:  cpu time    0.05: real time    0.05
    --------------------------------------------
      LOOP:  cpu time    1.80: real time    1.80

 eigenvalue-minimisations  :    16
 total energy-change (2. order) :-0.2811549E-02  (-0.1863604E-03)
 number of electron       8.0000009 magnetization 
 augmentation part        0.1903102 magnetization 

 Broyden mixing:
  rms(total) = 0.32913E-02    rms(broyden)= 0.32898E-02
  rms(prec ) = 0.38028E-02
  weight for this iteration     100.00

 eigenvalues of (default mixing * dielectric matrix)
  average eigenvalue GAMMA=   2.4283
  5.9883  4.2981  2.3333  2.4889  1.2141  1.2141  0.9954  0.8943

 Free energy of the ion-electron system (eV)
  ---------------------------------------------------
  alpha Z        PSCENC =         0.02989916
  Ewald energy   TEWEN  =       194.24874751
  -1/2 Hartree   DENC   =      -348.84624455
  -exchange  EXHF       =         0.00000000
  -V(xc)+E(xc)   XCENC  =        25.44957869
  PAW double counting   =        90.50046028      -91.94709978
  entropy T*S    EENTRO =         0.00000000
  eigenvalues    EBANDS =       -91.06320254
  atomic energy  EATOM  =       197.52610234
  ---------------------------------------------------
  free energy    TOTEN  =       -24.10175890 eV

  energy without entropy =      -24.10175890  energy(sigma->0) =      -24.10175890


--------------------------------------------------------------------------------------------------------




----------------------------------------- Iteration    1(  14)  ---------------------------------------


    POTLOK:  cpu time    1.15: real time    1.15
    SETDIJ:  cpu time    0.00: real time    0.00
    EDDIAG:  cpu time    0.10: real time    0.10
  RMM-DIIS:  cpu time    0.35: real time    0.35
    ORTHCH:  cpu time    0.00: real time    0.00
       DOS:  cpu time    0.00: real time    0.00
    CHARGE:  cpu time    0.14: real time    0.14
    MIXING:  cpu time    0.05: real time    0.05
    --------------------------------------------
      LOOP:  cpu time    1.80: real time    1.80

 eigenvalue-minimisations  :    16
 total energy-change (2. order) :-0.1520432E-02  (-0.9121432E-04)
 number of electron       8.0000009 magnetization 
 augmentation part        0.1903000 magnetization 

 Broyden mixing:
  rms(total) = 0.84848E-03    rms(broyden)= 0.84833E-03
  rms(prec ) = 0.11118E-02
  weight for this iteration     100.00

 eigenvalues of (default mixing * dielectric matrix)
  average eigenvalue GAMMA=   2.5299
  6.6425  4.6480  2.8546  2.3492  1.7687  1.2514  1.2514  0.9841  1.0196

 Free energy of the ion-electron system (eV)
  ---------------------------------------------------
  alpha Z        PSCENC =         0.02989916
  Ewald energy   TEWEN  =       194.24874751
  -1/2 Hartree   DENC   =      -348.83001798
  -exchange  EXHF       =         0.00000000
  -V(xc)+E(xc)   XCENC  =        25.44608161
  PAW double counting   =        90.42058021      -91.86577504
  entropy T*S    EENTRO =         0.00000000
  eigenvalues    EBANDS =       -91.07889715
  atomic energy  EATOM  =       197.52610234
  ---------------------------------------------------
  free energy    TOTEN  =       -24.10327933 eV

  energy without entropy =      -24.10327933  energy(sigma->0) =      -24.10327933


--------------------------------------------------------------------------------------------------------




----------------------------------------- Iteration    1(  15)  ---------------------------------------


    POTLOK:  cpu time    1.15: real time    1.15
    SETDIJ:  cpu time    0.00: real time    0.00
    EDDIAG:  cpu time    0.10: real time    0.10
  RMM-DIIS:  cpu time    0.35: real time    0.35
    ORTHCH:  cpu time    0.00: real time    0.00
       DOS:  cpu time    0.00: real time    0.00
    CHARGE:  cpu time    0.14: real time    0.14
    MIXING:  cpu time    0.06: real time    0.06
    --------------------------------------------
      LOOP:  cpu time    1.81: real time    1.81

 eigenvalue-minimisations  :    16
 total energy-change (2. order) :-0.4872843E-03  (-0.9240394E-05)
 number of electron       8.0000009 magnetization 
 augmentation part        0.1902835 magnetization 

 Broyden mixing:
  rms(total) = 0.29695E-03    rms(broyden)= 0.29661E-03
  rms(prec ) = 0.47072E-03
  weight for this iteration     100.00

 eigenvalues of (default mixing * dielectric matrix)
  average eigenvalue GAMMA=   2.5006
  7.2303  4.8340  2.9615  2.3826  2.1926  1.2234  1.2234  1.0091  1.0091  0.9399

 Free energy of the ion-electron system (eV)
  ---------------------------------------------------
  alpha Z        PSCENC =         0.02989916
  Ewald energy   TEWEN  =       194.24874751
  -1/2 Hartree   DENC   =      -348.86075831
  -exchange  EXHF       =         0.00000000
  -V(xc)+E(xc)   XCENC  =        25.44701433
  PAW double counting   =        90.42909770      -91.87416852
  entropy T*S    EENTRO =         0.00000000
  eigenvalues    EBANDS =       -91.04970083
  atomic energy  EATOM  =       197.52610234
  ---------------------------------------------------
  free energy    TOTEN  =       -24.10376661 eV

  energy without entropy =      -24.10376661  energy(sigma->0) =      -24.10376661


--------------------------------------------------------------------------------------------------------




----------------------------------------- Iteration    1(  16)  ---------------------------------------


    POTLOK:  cpu time    1.15: real time    1.15
    SETDIJ:  cpu time    0.00: real time    0.00
    EDDIAG:  cpu time    0.10: real time    0.10
  RMM-DIIS:  cpu time    0.35: real time    0.35
    ORTHCH:  cpu time    0.00: real time    0.00
       DOS:  cpu time    0.00: real time    0.00
    CHARGE:  cpu time    0.14: real time    0.14
    MIXING:  cpu time    0.06: real time    0.06
    --------------------------------------------
      LOOP:  cpu time    1.81: real time    1.81

 eigenvalue-minimisations  :    16
 total energy-change (2. order) :-0.1525048E-03  (-0.1304995E-05)
 number of electron       8.0000009 magnetization 
 augmentation part        0.1902912 magnetization 

 Broyden mixing:
  rms(total) = 0.33454E-03    rms(broyden)= 0.33442E-03
  rms(prec ) = 0.41567E-03
  weight for this iteration     100.00

 eigenvalues of (default mixing * dielectric matrix)
  average eigenvalue GAMMA=   2.7235
  8.0243  5.3919  4.0199  2.7432  2.3570  2.0108  1.2387  1.2387  1.0133  0.9995
  0.9208

 Free energy of the ion-electron system (eV)
  ---------------------------------------------------
  alpha Z        PSCENC =         0.02989916
  Ewald energy   TEWEN  =       194.24874751
  -1/2 Hartree   DENC   =      -348.85179271
  -exchange  EXHF       =         0.00000000
  -V(xc)+E(xc)   XCENC  =        25.44592878
  PAW double counting   =        90.41688355      -91.86186604
  entropy T*S    EENTRO =         0.00000000
  eigenvalues    EBANDS =       -91.05782171
  atomic energy  EATOM  =       197.52610234
  ---------------------------------------------------
  free energy    TOTEN  =       -24.10391912 eV

  energy without entropy =      -24.10391912  energy(sigma->0) =      -24.10391912


--------------------------------------------------------------------------------------------------------




----------------------------------------- Iteration    1(  17)  ---------------------------------------


    POTLOK:  cpu time    1.14: real time    1.14
    SETDIJ:  cpu time    0.00: real time    0.00
    EDDIAG:  cpu time    0.10: real time    0.10
  RMM-DIIS:  cpu time    0.33: real time    0.33
    ORTHCH:  cpu time    0.00: real time    0.00
       DOS:  cpu time    0.00: real time    0.00
    CHARGE:  cpu time    0.14: real time    0.14
    MIXING:  cpu time    0.06: real time    0.06
    --------------------------------------------
      LOOP:  cpu time    1.78: real time    1.78

 eigenvalue-minimisations  :    15
 total energy-change (2. order) :-0.1605170E-03  (-0.1406490E-05)
 number of electron       8.0000009 magnetization 
 augmentation part        0.1902989 magnetization 

 Broyden mixing:
  rms(total) = 0.20729E-03    rms(broyden)= 0.20725E-03
  rms(prec ) = 0.24612E-03
  weight for this iteration     100.00

 eigenvalues of (default mixing * dielectric matrix)
  average eigenvalue GAMMA=   2.6729
  8.2902  5.5861  4.0429  2.7684  2.3638  1.8008  1.8008  1.2278  1.2278  1.0265
  0.9652  0.9745

 Free energy of the ion-electron system (eV)
  ---------------------------------------------------
  alpha Z        PSCENC =         0.02989916
  Ewald energy   TEWEN  =       194.24874751
  -1/2 Hartree   DENC   =      -348.85567578
  -exchange  EXHF       =         0.00000000
  -V(xc)+E(xc)   XCENC  =        25.44510219
  PAW double counting   =        90.40693304      -91.85197887
  entropy T*S    EENTRO =         0.00000000
  eigenvalues    EBANDS =       -91.05320923
  atomic energy  EATOM  =       197.52610234
  ---------------------------------------------------
  free energy    TOTEN  =       -24.10407964 eV

  energy without entropy =      -24.10407964  energy(sigma->0) =      -24.10407964


--------------------------------------------------------------------------------------------------------




----------------------------------------- Iteration    1(  18)  ---------------------------------------


    POTLOK:  cpu time    1.13: real time    1.13
    SETDIJ:  cpu time    0.00: real time    0.00
    EDDIAG:  cpu time    0.10: real time    0.10
  RMM-DIIS:  cpu time    0.32: real time    0.33
    ORTHCH:  cpu time    0.00: real time    0.00
       DOS:  cpu time    0.00: real time    0.00
    CHARGE:  cpu time    0.14: real time    0.14
    MIXING:  cpu time    0.07: real time    0.07
    --------------------------------------------
      LOOP:  cpu time    1.77: real time    1.77

 eigenvalue-minimisations  :    15
 total energy-change (2. order) :-0.3238900E-04  (-0.3504489E-06)
 number of electron       8.0000009 magnetization 
 augmentation part        0.1902871 magnetization 

 Broyden mixing:
  rms(total) = 0.21805E-03    rms(broyden)= 0.21800E-03
  rms(prec ) = 0.24259E-03
  weight for this iteration     100.00

 eigenvalues of (default mixing * dielectric matrix)
  average eigenvalue GAMMA=   2.8276
  8.9595  6.1240  4.8096  3.3640  2.7200  2.3732  1.9693  1.2356  1.2356  1.0240
  1.0240  0.9599  0.9599

 Free energy of the ion-electron system (eV)
  ---------------------------------------------------
  alpha Z        PSCENC =         0.02989916
  Ewald energy   TEWEN  =       194.24874751
  -1/2 Hartree   DENC   =      -348.86741705
  -exchange  EXHF       =         0.00000000
  -V(xc)+E(xc)   XCENC  =        25.44561073
  PAW double counting   =        90.42592308      -91.87112934
  entropy T*S    EENTRO =         0.00000000
  eigenvalues    EBANDS =       -91.04184846
  atomic energy  EATOM  =       197.52610234
  ---------------------------------------------------
  free energy    TOTEN  =       -24.10411203 eV

  energy without entropy =      -24.10411203  energy(sigma->0) =      -24.10411203


--------------------------------------------------------------------------------------------------------




----------------------------------------- Iteration    1(  19)  ---------------------------------------


    POTLOK:  cpu time    1.15: real time    1.15
    SETDIJ:  cpu time    0.00: real time    0.00
    EDDIAG:  cpu time    0.10: real time    0.10
  RMM-DIIS:  cpu time    0.27: real time    0.27
    ORTHCH:  cpu time    0.00: real time    0.00
       DOS:  cpu time    0.00: real time    0.00
    CHARGE:  cpu time    0.14: real time    0.14
    MIXING:  cpu time    0.08: real time    0.08
    --------------------------------------------
      LOOP:  cpu time    1.75: real time    1.75

 eigenvalue-minimisations  :    12
 total energy-change (2. order) :-0.2488047E-04  (-0.7214333E-07)
 number of electron       8.0000009 magnetization 
 augmentation part        0.1902881 magnetization 

 Broyden mixing:
  rms(total) = 0.98649E-04    rms(broyden)= 0.98645E-04
  rms(prec ) = 0.11108E-03
  weight for this iteration     100.00

 eigenvalues of (default mixing * dielectric matrix)
  average eigenvalue GAMMA=   2.7505
  9.0946  6.3236  4.6752  3.5093  2.6184  2.3748  1.7589  1.7589  1.2260  1.2260
  1.0308  1.0308  0.9605  0.9189

 Free energy of the ion-electron system (eV)
  ---------------------------------------------------
  alpha Z        PSCENC =         0.02989916
  Ewald energy   TEWEN  =       194.24874751
  -1/2 Hartree   DENC   =      -348.86830056
  -exchange  EXHF       =         0.00000000
  -V(xc)+E(xc)   XCENC  =        25.44566333
  PAW double counting   =        90.41870656      -91.86383106
  entropy T*S    EENTRO =         0.00000000
  eigenvalues    EBANDS =       -91.04112419
  atomic energy  EATOM  =       197.52610234
  ---------------------------------------------------
  free energy    TOTEN  =       -24.10413691 eV

  energy without entropy =      -24.10413691  energy(sigma->0) =      -24.10413691


--------------------------------------------------------------------------------------------------------




----------------------------------------- Iteration    1(  20)  ---------------------------------------


    POTLOK:  cpu time    1.16: real time    1.16
    SETDIJ:  cpu time    0.00: real time    0.00
    EDDIAG:  cpu time    0.10: real time    0.10
  RMM-DIIS:  cpu time    0.27: real time    0.27
    ORTHCH:  cpu time    0.00: real time    0.00
       DOS:  cpu time    0.00: real time    0.00
    CHARGE:  cpu time    0.14: real time    0.14
    MIXING:  cpu time    0.08: real time    0.08
    --------------------------------------------
      LOOP:  cpu time    1.76: real time    1.76

 eigenvalue-minimisations  :    12
 total energy-change (2. order) :-0.3201593E-05  (-0.8470774E-07)
 number of electron       8.0000009 magnetization 
 augmentation part        0.1902929 magnetization 

 Broyden mixing:
  rms(total) = 0.64319E-04    rms(broyden)= 0.64296E-04
  rms(prec ) = 0.72204E-04
  weight for this iteration     100.00

 eigenvalues of (default mixing * dielectric matrix)
  average eigenvalue GAMMA=   2.8478
  9.4626  6.8277  5.0559  4.0709  2.7836  2.7836  2.3382  1.9326  1.2291  1.2291
  1.0573  1.0573  0.9375  0.9755  0.9755

 Free energy of the ion-electron system (eV)
  ---------------------------------------------------
  alpha Z        PSCENC =         0.02989916
  Ewald energy   TEWEN  =       194.24874751
  -1/2 Hartree   DENC   =      -348.86325130
  -exchange  EXHF       =         0.00000000
  -V(xc)+E(xc)   XCENC  =        25.44543682
  PAW double counting   =        90.41298148      -91.85804549
  entropy T*S    EENTRO =         0.00000000
  eigenvalues    EBANDS =       -91.04601063
  atomic energy  EATOM  =       197.52610234
  ---------------------------------------------------
  free energy    TOTEN  =       -24.10414011 eV

  energy without entropy =      -24.10414011  energy(sigma->0) =      -24.10414011


--------------------------------------------------------------------------------------------------------




----------------------------------------- Iteration    1(  21)  ---------------------------------------


    POTLOK:  cpu time    1.16: real time    1.16
    SETDIJ:  cpu time    0.00: real time    0.00
    EDDIAG:  cpu time    0.10: real time    0.10
  RMM-DIIS:  cpu time    0.27: real time    0.27
    ORTHCH:  cpu time    0.00: real time    0.00
       DOS:  cpu time    0.00: real time    0.00
    CHARGE:  cpu time    0.14: real time    0.14
    MIXING:  cpu time    0.08: real time    0.08
    --------------------------------------------
      LOOP:  cpu time    1.76: real time    1.76

 eigenvalue-minimisations  :    12
 total energy-change (2. order) :-0.1642327E-05  (-0.8416915E-08)
 number of electron       8.0000009 magnetization 
 augmentation part        0.1902930 magnetization 

 Broyden mixing:
  rms(total) = 0.29113E-04    rms(broyden)= 0.29103E-04
  rms(prec ) = 0.31943E-04
  weight for this iteration     100.00

 eigenvalues of (default mixing * dielectric matrix)
  average eigenvalue GAMMA=   2.7639
  9.5401  6.7947  5.2955  3.8777  3.2063  2.4165  2.4165  1.9325  1.2191  1.2191
  1.1837  1.1837  1.0700  0.9417  0.9627  0.9627

 Free energy of the ion-electron system (eV)
  ---------------------------------------------------
  alpha Z        PSCENC =         0.02989916
  Ewald energy   TEWEN  =       194.24874751
  -1/2 Hartree   DENC   =      -348.86557981
  -exchange  EXHF       =         0.00000000
  -V(xc)+E(xc)   XCENC  =        25.44555559
  PAW double counting   =        90.41688509      -91.86197771
  entropy T*S    EENTRO =         0.00000000
  eigenvalues    EBANDS =       -91.04377392
  atomic energy  EATOM  =       197.52610234
  ---------------------------------------------------
  free energy    TOTEN  =       -24.10414175 eV

  energy without entropy =      -24.10414175  energy(sigma->0) =      -24.10414175


--------------------------------------------------------------------------------------------------------




----------------------------------------- Iteration    1(  22)  ---------------------------------------


    POTLOK:  cpu time    1.15: real time    1.15
    SETDIJ:  cpu time    0.00: real time    0.00
    EDDIAG:  cpu time    0.10: real time    0.10
  RMM-DIIS:  cpu time    0.23: real time    0.23
    ORTHCH:  cpu time    0.00: real time    0.00
       DOS:  cpu time    0.00: real time    0.00
    --------------------------------------------
      LOOP:  cpu time    1.49: real time    1.49

 eigenvalue-minimisations  :     8
 total energy-change (2. order) :-0.7888667E-07  ( 0.0000000E+00)
 number of electron       8.0000009 magnetization 
 augmentation part        0.1902930 magnetization 

 Free energy of the ion-electron system (eV)
  ---------------------------------------------------
  alpha Z        PSCENC =         0.02989916
  Ewald energy   TEWEN  =       194.24874751
  -1/2 Hartree   DENC   =      -348.86633090
  -exchange  EXHF       =         0.00000000
  -V(xc)+E(xc)   XCENC  =        25.44559094
  PAW double counting   =        90.41741298      -91.86251275
  entropy T*S    EENTRO =         0.00000000
  eigenvalues    EBANDS =       -91.04305111
  atomic energy  EATOM  =       197.52610234
  ---------------------------------------------------
  free energy    TOTEN  =       -24.10414183 eV

  energy without entropy =      -24.10414183  energy(sigma->0) =      -24.10414183


--------------------------------------------------------------------------------------------------------




 average (electrostatic) potential at core
  the test charge radii are     0.6991  0.5201
  (the norm of the test charge is              1.0000)
       1 -59.1043       2 -41.8162       3 -41.6321       4 -41.6316       5 -41.6315



 E-fermi :  -8.8848     XC(G=0):  -0.0740     alpha+bet : -0.0264


 k-point   1 :       0.0000    0.0000    0.0000
  band No.  band energies     occupation 
      1     -17.0790      2.00000
      2      -9.6797      2.00000
      3      -9.3815      2.00000
      4      -9.3814      2.00000
      5      -0.4461      0.00000
      6       0.3266      0.00000
      7       0.3431      0.00000
      8       0.3432      0.00000


--------------------------------------------------------------------------------------------------------


 soft charge-density along one line, spin component            1
         0         1         2         3         4         5         6         7         8         9
 total charge-density along one line

 pseudopotential strength for first ion, spin component:            1
 10.364   0.018   0.000   0.000   0.000   0.000   0.000   0.000
  0.018  -0.001   0.000   0.000   0.000   0.000   0.000   0.000
  0.000   0.000  -4.327   0.000   0.000  -0.015   0.000   0.000
  0.000   0.000   0.000  -4.329   0.000   0.000  -0.015   0.000
  0.000   0.000   0.000   0.000  -4.327   0.000   0.000  -0.015
  0.000   0.000  -0.015   0.000   0.000  -0.849   0.000   0.000
  0.000   0.000   0.000  -0.015   0.000   0.000  -0.849   0.000
  0.000   0.000   0.000   0.000  -0.015   0.000   0.000  -0.849
 total augmentation occupancy for first ion, spin component:            1
  1.427  -1.134   0.000  -0.010   0.000   0.000   0.000   0.000
 -1.134   0.901   0.000  -0.012   0.000   0.000  -0.003   0.000
  0.000   0.000   1.137   0.000   0.000   0.190   0.000   0.000
 -0.010  -0.012   0.000   1.152   0.000   0.000   0.198   0.000
  0.000   0.000   0.000   0.000   1.137   0.000   0.000   0.190
  0.000   0.000   0.190   0.000   0.000   0.032   0.000   0.000
  0.000  -0.003   0.000   0.198   0.000   0.000   0.034   0.000
  0.000   0.000   0.000   0.000   0.190   0.000   0.000   0.032


------------------------ aborting loop because EDIFF is reached ----------------------------------------


    CHARGE:  cpu time    0.14: real time    0.14
    FORLOC:  cpu time    0.07: real time    0.07
    FORNL :  cpu time    0.14: real time    0.14
    FORHAR:  cpu time    0.36: real time    0.36
    MIXING:  cpu time    0.09: real time    0.09
    FORVDW:  cpu time    0.00: real time    0.00

 VOLUME and BASIS-vectors are now :
 -----------------------------------------------------------------------------
  energy-cutoff  :      400.00
  volume of cell :     8000.00
      direct lattice vectors                 reciprocal lattice vectors
    20.000000000  0.000000000  0.000000000     0.050000000  0.000000000  0.000000000
     0.000000000 20.000000000  0.000000000     0.000000000  0.050000000  0.000000000
     0.000000000  0.000000000 20.000000000     0.000000000  0.000000000  0.050000000

  length of vectors
    20.000000000 20.000000000 20.000000000     0.050000000  0.050000000  0.050000000


 FORCES acting on ions
    electron-ion (+dipol)            ewald-force                    non-local-force                 convergence-correction
 -----------------------------------------------------------------------------------------------
   0.372E-03 0.174E-03 0.302E+01   -.466E-03 0.223E-04 -.299E+01   -.160E-03 -.152E-04 0.882E+00   0.587E-06 -.130E-05 0.401E-04
   0.104E-03 -.139E-05 0.541E+02   -.110E-03 0.153E-05 -.603E+02   -.171E-04 -.990E-06 0.581E+01   0.193E-06 -.714E-07 -.844E-04
   0.499E+02 0.435E+00 -.192E+02   -.551E+02 -.481E+00 0.211E+02   0.515E+01 0.453E-01 -.206E+01   -.742E-04 -.894E-06 0.369E-04
   -.253E+02 0.430E+02 -.192E+02   0.280E+02 -.475E+02 0.211E+02   -.261E+01 0.443E+01 -.206E+01   0.378E-04 -.638E-04 0.369E-04
   -.246E+02 -.434E+02 -.192E+02   0.271E+02 0.480E+02 0.211E+02   -.253E+01 -.448E+01 -.206E+01   0.368E-04 0.641E-04 0.368E-04
 -----------------------------------------------------------------------------------------------
   -.445E-04 0.280E-03 -.518E+00   -.355E-14 -.711E-14 0.000E+00   0.308E-04 0.287E-03 0.526E+00   0.119E-05 -.191E-05 0.663E-04


 POSITION                                       TOTAL-FORCE (eV/Angst)
 -----------------------------------------------------------------------------------
      0.00000      0.00000      1.07526        -0.000250      0.000066      0.910316
      0.00000      0.00000     19.99526        -0.000020     -0.000114     -0.442318
     18.97931     19.99109      1.47428        -0.090146     -0.000323     -0.155967
      0.51806     19.12051      1.47428         0.046178     -0.078576     -0.156017
      0.50263      0.88840      1.47428         0.044238      0.078946     -0.156014
 -----------------------------------------------------------------------------------
    total drift:                               -0.000013      0.000565      0.007844


--------------------------------------------------------------------------------------------------------



  FREE ENERGIE OF THE ION-ELECTRON SYSTEM (eV)
  ---------------------------------------------------
  free  energy   TOTEN  =       -24.10414183 eV

  energy  without entropy=      -24.10414183  energy(sigma->0) =      -24.10414183



--------------------------------------------------------------------------------------------------------


    POTLOK:  cpu time    1.15: real time    1.15


--------------------------------------------------------------------------------------------------------


 stress matrix after NEB project (eV)
      0.00000      0.00000      0.00000
      0.00000      0.00000      0.00000
      0.00000      0.00000      0.00000
  FORCES: max atom, RMS     0.910316    0.473698
  FORCE total and by dimension    1.059221    0.910316
  Stress total and by dimension    0.000000    0.000000


--------------------------------------------------------------------------------------------------------


    WAVPRE:  cpu time    0.13: real time    0.13
 FEWALD executed in parallel
    FEWALD:  cpu time    0.00: real time    0.00

 real space projection operators:
  total allocation   :        217.48 KBytes
  max/ min on nodes  :         42.27          2.66

    ORTHCH:  cpu time    0.05: real time    0.05
     LOOP+:  cpu time   36.82: real time   36.83


----------------------------------------- Iteration    2(   1)  ---------------------------------------


    POTLOK:  cpu time    1.15: real time    1.15
    SETDIJ:  cpu time    0.00: real time    0.00
     EDDAV:  cpu time    0.43: real time    0.43
       DOS:  cpu time    0.00: real time    0.00
    CHARGE:  cpu time    0.14: real time    0.14
    MIXING:  cpu time    0.04: real time    0.04
    --------------------------------------------
      LOOP:  cpu time    1.76: real time    1.76

 eigenvalue-minimisations  :    16
 total energy-change (2. order) :-0.5212207E-02  (-0.1310654E+00)
 number of electron       7.9999998 magnetization 
 augmentation part        0.1889323 magnetization 

 Broyden mixing:
  rms(total) = 0.24970E-01    rms(broyden)= 0.24929E-01
  rms(prec ) = 0.26512E-01
  weight for this iteration     100.00

 Free energy of the ion-electron system (eV)
  ---------------------------------------------------
  alpha Z        PSCENC =         0.02989916
  Ewald energy   TEWEN  =       193.56165722
  -1/2 Hartree   DENC   =      -348.45490209
  -exchange  EXHF       =         0.00000000
  -V(xc)+E(xc)   XCENC  =        25.42537883
  PAW double counting   =        90.41819326      -91.86331114
  entropy T*S    EENTRO =         0.00000000
  eigenvalues    EBANDS =       -90.75237153
  atomic energy  EATOM  =       197.52610234
  ---------------------------------------------------
  free energy    TOTEN  =       -24.10935396 eV

  energy without entropy =      -24.10935396  energy(sigma->0) =      -24.10935396


--------------------------------------------------------------------------------------------------------




----------------------------------------- Iteration    2(   2)  ---------------------------------------


    POTLOK:  cpu time    1.13: real time    1.14
    SETDIJ:  cpu time    0.00: real time    0.00
    EDDIAG:  cpu time    0.10: real time    0.10
  RMM-DIIS:  cpu time    0.35: real time    0.35
    ORTHCH:  cpu time    0.00: real time    0.00
       DOS:  cpu time    0.00: real time    0.00
    CHARGE:  cpu time    0.14: real time    0.14
    MIXING:  cpu time    0.04: real time    0.04
    --------------------------------------------
      LOOP:  cpu time    1.77: real time    1.77

 eigenvalue-minimisations  :    16
 total energy-change (2. order) :-0.7441066E-04  (-0.1368702E-02)
 number of electron       7.9999998 magnetization 
 augmentation part        0.1892684 magnetization 

 Broyden mixing:
  rms(total) = 0.17670E-01    rms(broyden)= 0.17664E-01
  rms(prec ) = 0.18698E-01
  weight for this iteration     100.00

 eigenvalues of (default mixing * dielectric matrix)
  average eigenvalue GAMMA=   2.7514
  2.7514

 Free energy of the ion-electron system (eV)
  ---------------------------------------------------
  alpha Z        PSCENC =         0.02989916
  Ewald energy   TEWEN  =       193.56165722
  -1/2 Hartree   DENC   =      -348.32368398
  -exchange  EXHF       =         0.00000000
  -V(xc)+E(xc)   XCENC  =        25.41831972
  PAW double counting   =        90.04505109      -91.48828061
  entropy T*S    EENTRO =         0.00000000
  eigenvalues    EBANDS =       -90.87849331
  atomic energy  EATOM  =       197.52610234
  ---------------------------------------------------
  free energy    TOTEN  =       -24.10942837 eV

  energy without entropy =      -24.10942837  energy(sigma->0) =      -24.10942837


--------------------------------------------------------------------------------------------------------




----------------------------------------- Iteration    2(   3)  ---------------------------------------


    POTLOK:  cpu time    1.13: real time    1.13
    SETDIJ:  cpu time    0.00: real time    0.00
    EDDIAG:  cpu time    0.10: real time    0.10
  RMM-DIIS:  cpu time    0.35: real time    0.35
    ORTHCH:  cpu time    0.00: real time    0.00
       DOS:  cpu time    0.00: real time    0.00
    CHARGE:  cpu time    0.14: real time    0.14
    MIXING:  cpu time    0.04: real time    0.04
    --------------------------------------------
      LOOP:  cpu time    1.76: real time    1.76

 eigenvalue-minimisations  :    16
 total energy-change (2. order) : 0.4787906E-03  (-0.5432272E-03)
 number of electron       7.9999998 magnetization 
 augmentation part        0.1895830 magnetization 

 Broyden mixing:
  rms(total) = 0.55228E-02    rms(broyden)= 0.55207E-02
  rms(prec ) = 0.60920E-02
  weight for this iteration     100.00

 eigenvalues of (default mixing * dielectric matrix)
  average eigenvalue GAMMA=   1.5571
  2.0219  1.0924

 Free energy of the ion-electron system (eV)
  ---------------------------------------------------
  alpha Z        PSCENC =         0.02989916
  Ewald energy   TEWEN  =       193.56165722
  -1/2 Hartree   DENC   =      -348.18451626
  -exchange  EXHF       =         0.00000000
  -V(xc)+E(xc)   XCENC  =        25.41093756
  PAW double counting   =        89.66283841      -91.10215147
  entropy T*S    EENTRO =         0.00000000
  eigenvalues    EBANDS =       -91.01371654
  atomic energy  EATOM  =       197.52610234
  ---------------------------------------------------
  free energy    TOTEN  =       -24.10894958 eV

  energy without entropy =      -24.10894958  energy(sigma->0) =      -24.10894958


--------------------------------------------------------------------------------------------------------




----------------------------------------- Iteration    2(   4)  ---------------------------------------


    POTLOK:  cpu time    1.13: real time    1.13
    SETDIJ:  cpu time    0.00: real time    0.00
    EDDIAG:  cpu time    0.10: real time    0.10
  RMM-DIIS:  cpu time    0.35: real time    0.35
    ORTHCH:  cpu time    0.00: real time    0.00
       DOS:  cpu time    0.00: real time    0.00
    CHARGE:  cpu time    0.14: real time    0.14
    MIXING:  cpu time    0.04: real time    0.04
    --------------------------------------------
      LOOP:  cpu time    1.77: real time    1.77

 eigenvalue-minimisations  :    16
 total energy-change (2. order) : 0.1341007E-03  (-0.3085580E-04)
 number of electron       7.9999998 magnetization 
 augmentation part        0.1895620 magnetization 

 Broyden mixing:
  rms(total) = 0.17482E-02    rms(broyden)= 0.17479E-02
  rms(prec ) = 0.18915E-02
  weight for this iteration     100.00

 eigenvalues of (default mixing * dielectric matrix)
  average eigenvalue GAMMA=   1.9904
  1.0052  2.1409  2.8250

 Free energy of the ion-electron system (eV)
  ---------------------------------------------------
  alpha Z        PSCENC =         0.02989916
  Ewald energy   TEWEN  =       193.56165722
  -1/2 Hartree   DENC   =      -348.25195656
  -exchange  EXHF       =         0.00000000
  -V(xc)+E(xc)   XCENC  =        25.41428633
  PAW double counting   =        89.80870955      -91.25089410
  entropy T*S    EENTRO =         0.00000000
  eigenvalues    EBANDS =       -90.94661942
  atomic energy  EATOM  =       197.52610234
  ---------------------------------------------------
  free energy    TOTEN  =       -24.10881548 eV

  energy without entropy =      -24.10881548  energy(sigma->0) =      -24.10881548


--------------------------------------------------------------------------------------------------------




----------------------------------------- Iteration    2(   5)  ---------------------------------------


    POTLOK:  cpu time    1.12: real time    1.12
    SETDIJ:  cpu time    0.00: real time    0.00
    EDDIAG:  cpu time    0.10: real time    0.10
  RMM-DIIS:  cpu time    0.34: real time    0.34
    ORTHCH:  cpu time    0.00: real time    0.00
       DOS:  cpu time    0.00: real time    0.00
    CHARGE:  cpu time    0.14: real time    0.14
    MIXING:  cpu time    0.04: real time    0.04
    --------------------------------------------
      LOOP:  cpu time    1.75: real time    1.75

 eigenvalue-minimisations  :    16
 total energy-change (2. order) :-0.2511888E-04  (-0.2119236E-04)
 number of electron       7.9999998 magnetization 
 augmentation part        0.1894834 magnetization 

 Broyden mixing:
  rms(total) = 0.15804E-02    rms(broyden)= 0.15798E-02
  rms(prec ) = 0.17506E-02
  weight for this iteration     100.00

 eigenvalues of (default mixing * dielectric matrix)
  average eigenvalue GAMMA=   1.4565
  2.4780  1.6267  1.0669  0.6544

 Free energy of the ion-electron system (eV)
  ---------------------------------------------------
  alpha Z        PSCENC =         0.02989916
  Ewald energy   TEWEN  =       193.56165722
  -1/2 Hartree   DENC   =      -348.30713608
  -exchange  EXHF       =         0.00000000
  -V(xc)+E(xc)   XCENC  =        25.41677270
  PAW double counting   =        89.89522279      -91.33832097
  entropy T*S    EENTRO =         0.00000000
  eigenvalues    EBANDS =       -90.89303776
  atomic energy  EATOM  =       197.52610234
  ---------------------------------------------------
  free energy    TOTEN  =       -24.10884059 eV

  energy without entropy =      -24.10884059  energy(sigma->0) =      -24.10884059


--------------------------------------------------------------------------------------------------------




----------------------------------------- Iteration    2(   6)  ---------------------------------------


    POTLOK:  cpu time    1.12: real time    1.12
    SETDIJ:  cpu time    0.00: real time    0.00
    EDDIAG:  cpu time    0.10: real time    0.10
  RMM-DIIS:  cpu time    0.35: real time    0.35
    ORTHCH:  cpu time    0.00: real time    0.00
       DOS:  cpu time    0.00: real time    0.00
    CHARGE:  cpu time    0.14: real time    0.14
    MIXING:  cpu time    0.04: real time    0.04
    --------------------------------------------
      LOOP:  cpu time    1.75: real time    1.76

 eigenvalue-minimisations  :    16
 total energy-change (2. order) : 0.1090717E-04  (-0.1789334E-05)
 number of electron       7.9999998 magnetization 
 augmentation part        0.1894966 magnetization 

 Broyden mixing:
  rms(total) = 0.66082E-03    rms(broyden)= 0.66081E-03
  rms(prec ) = 0.73747E-03
  weight for this iteration     100.00

 eigenvalues of (default mixing * dielectric matrix)
  average eigenvalue GAMMA=   1.7286
  2.3159  2.3159  1.5116  1.5116  0.9878

 Free energy of the ion-electron system (eV)
  ---------------------------------------------------
  alpha Z        PSCENC =         0.02989916
  Ewald energy   TEWEN  =       193.56165722
  -1/2 Hartree   DENC   =      -348.27889762
  -exchange  EXHF       =         0.00000000
  -V(xc)+E(xc)   XCENC  =        25.41545861
  PAW double counting   =        89.84774104      -91.29038639
  entropy T*S    EENTRO =         0.00000000
  eigenvalues    EBANDS =       -90.92040405
  atomic energy  EATOM  =       197.52610234
  ---------------------------------------------------
  free energy    TOTEN  =       -24.10882969 eV

  energy without entropy =      -24.10882969  energy(sigma->0) =      -24.10882969


--------------------------------------------------------------------------------------------------------




----------------------------------------- Iteration    2(   7)  ---------------------------------------


    POTLOK:  cpu time    1.12: real time    1.12
    SETDIJ:  cpu time    0.00: real time    0.00
    EDDIAG:  cpu time    0.10: real time    0.10
  RMM-DIIS:  cpu time    0.35: real time    0.35
    ORTHCH:  cpu time    0.00: real time    0.00
       DOS:  cpu time    0.00: real time    0.00
    CHARGE:  cpu time    0.14: real time    0.14
    MIXING:  cpu time    0.05: real time    0.05
    --------------------------------------------
      LOOP:  cpu time    1.77: real time    1.77

 eigenvalue-minimisations  :    16
 total energy-change (2. order) :-0.1667211E-04  (-0.6072225E-05)
 number of electron       7.9999998 magnetization 
 augmentation part        0.1895523 magnetization 

 Broyden mixing:
  rms(total) = 0.86635E-03    rms(broyden)= 0.86601E-03
  rms(prec ) = 0.96126E-03
  weight for this iteration     100.00

[...]
 total energy-change (2. order) : 0.6236189E-04  (-0.2076184E-04)
 number of electron       8.0000007 magnetization 
 augmentation part        0.1890321 magnetization 

 Broyden mixing:
  rms(total) = 0.26396E-02    rms(broyden)= 0.26384E-02
  rms(prec ) = 0.28417E-02
  weight for this iteration     100.00

 eigenvalues of (default mixing * dielectric matrix)
  average eigenvalue GAMMA=   1.8965
  1.8965

 Free energy of the ion-electron system (eV)
  ---------------------------------------------------
  alpha Z        PSCENC =         0.02989916
  Ewald energy   TEWEN  =       193.09137136
  -1/2 Hartree   DENC   =      -347.80969766
  -exchange  EXHF       =         0.00000000
  -V(xc)+E(xc)   XCENC  =        25.39008337
  PAW double counting   =        89.21187261      -90.65164104
  entropy T*S    EENTRO =         0.00000000
  eigenvalues    EBANDS =       -90.90506965
  atomic energy  EATOM  =       197.52610234
  ---------------------------------------------------
  free energy    TOTEN  =       -24.11707949 eV

  energy without entropy =      -24.11707949  energy(sigma->0) =      -24.11707949


--------------------------------------------------------------------------------------------------------




----------------------------------------- Iteration    7(   3)  ---------------------------------------


    POTLOK:  cpu time    1.13: real time    1.14
    SETDIJ:  cpu time    0.00: real time    0.00
    EDDIAG:  cpu time    0.10: real time    0.10
  RMM-DIIS:  cpu time    0.34: real time    0.34
    ORTHCH:  cpu time    0.00: real time    0.00
       DOS:  cpu time    0.00: real time    0.00
    CHARGE:  cpu time    0.14: real time    0.14
    MIXING:  cpu time    0.04: real time    0.04
    --------------------------------------------
      LOOP:  cpu time    1.76: real time    1.76

 eigenvalue-minimisations  :    16
 total energy-change (2. order) : 0.7021409E-05  (-0.2166578E-04)
 number of electron       8.0000007 magnetization 
 augmentation part        0.1889217 magnetization 

 Broyden mixing:
  rms(total) = 0.10978E-02    rms(broyden)= 0.10968E-02
  rms(prec ) = 0.12047E-02
  weight for this iteration     100.00

 eigenvalues of (default mixing * dielectric matrix)
  average eigenvalue GAMMA=   1.2350
  1.5957  0.8743

 Free energy of the ion-electron system (eV)
  ---------------------------------------------------
  alpha Z        PSCENC =         0.02989916
  Ewald energy   TEWEN  =       193.09137136
  -1/2 Hartree   DENC   =      -347.88404801
  -exchange  EXHF       =         0.00000000
  -V(xc)+E(xc)   XCENC  =        25.39430216
  PAW double counting   =        89.40862048      -90.84948043
  entropy T*S    EENTRO =         0.00000000
  eigenvalues    EBANDS =       -90.83383954
  atomic energy  EATOM  =       197.52610234
  ---------------------------------------------------
  free energy    TOTEN  =       -24.11707247 eV

  energy without entropy =      -24.11707247  energy(sigma->0) =      -24.11707247


--------------------------------------------------------------------------------------------------------




----------------------------------------- Iteration    7(   4)  ---------------------------------------


    POTLOK:  cpu time    1.13: real time    1.13
    SETDIJ:  cpu time    0.00: real time    0.00
    EDDIAG:  cpu time    0.10: real time    0.10
  RMM-DIIS:  cpu time    0.35: real time    0.35
    ORTHCH:  cpu time    0.00: real time    0.00
       DOS:  cpu time    0.00: real time    0.00
    CHARGE:  cpu time    0.14: real time    0.14
    MIXING:  cpu time    0.04: real time    0.04
    --------------------------------------------
      LOOP:  cpu time    1.76: real time    1.76

 eigenvalue-minimisations  :    16
 total energy-change (2. order) : 0.3419943E-05  (-0.5040034E-06)
 number of electron       8.0000007 magnetization 
 augmentation part        0.1889277 magnetization 

 Broyden mixing:
  rms(total) = 0.68498E-03    rms(broyden)= 0.68493E-03
  rms(prec ) = 0.73984E-03
  weight for this iteration     100.00

 eigenvalues of (default mixing * dielectric matrix)
  average eigenvalue GAMMA=   1.8769
  1.0749  1.7757  2.7801

 Free energy of the ion-electron system (eV)
  ---------------------------------------------------
  alpha Z        PSCENC =         0.02989916
  Ewald energy   TEWEN  =       193.09137136
  -1/2 Hartree   DENC   =      -347.86485311
  -exchange  EXHF       =         0.00000000
  -V(xc)+E(xc)   XCENC  =        25.39336946
  PAW double counting   =        89.37902717      -90.81959071
  entropy T*S    EENTRO =         0.00000000
  eigenvalues    EBANDS =       -90.85239474
  atomic energy  EATOM  =       197.52610234
  ---------------------------------------------------
  free energy    TOTEN  =       -24.11706905 eV

  energy without entropy =      -24.11706905  energy(sigma->0) =      -24.11706905


--------------------------------------------------------------------------------------------------------




----------------------------------------- Iteration    7(   5)  ---------------------------------------


    POTLOK:  cpu time    1.15: real time    1.15
    SETDIJ:  cpu time    0.00: real time    0.00
    EDDIAG:  cpu time    0.10: real time    0.10
  RMM-DIIS:  cpu time    0.35: real time    0.35
    ORTHCH:  cpu time    0.00: real time    0.00
       DOS:  cpu time    0.00: real time    0.00
    CHARGE:  cpu time    0.14: real time    0.14
    MIXING:  cpu time    0.04: real time    0.04
    --------------------------------------------
      LOOP:  cpu time    1.78: real time    1.78

 eigenvalue-minimisations  :    16
 total energy-change (2. order) :-0.4479818E-05  (-0.4439324E-05)
 number of electron       8.0000007 magnetization 
 augmentation part        0.1889766 magnetization 

 Broyden mixing:
  rms(total) = 0.85601E-03    rms(broyden)= 0.85576E-03
  rms(prec ) = 0.94834E-03
  weight for this iteration     100.00

 eigenvalues of (default mixing * dielectric matrix)
  average eigenvalue GAMMA=   1.4152
  2.5016  1.1239  1.1239  0.9112

 Free energy of the ion-electron system (eV)
  ---------------------------------------------------
  alpha Z        PSCENC =         0.02989916
  Ewald energy   TEWEN  =       193.09137136
  -1/2 Hartree   DENC   =      -347.83918012
  -exchange  EXHF       =         0.00000000
  -V(xc)+E(xc)   XCENC  =        25.39233547
  PAW double counting   =        89.37579600      -90.81596320
  entropy T*S    EENTRO =         0.00000000
  eigenvalues    EBANDS =       -90.87743455
  atomic energy  EATOM  =       197.52610234
  ---------------------------------------------------
  free energy    TOTEN  =       -24.11707353 eV

  energy without entropy =      -24.11707353  energy(sigma->0) =      -24.11707353


--------------------------------------------------------------------------------------------------------




----------------------------------------- Iteration    7(   6)  ---------------------------------------


    POTLOK:  cpu time    1.14: real time    1.14
    SETDIJ:  cpu time    0.00: real time    0.00
    EDDIAG:  cpu time    0.10: real time    0.10
  RMM-DIIS:  cpu time    0.34: real time    0.34
    ORTHCH:  cpu time    0.00: real time    0.00
       DOS:  cpu time    0.00: real time    0.00
    CHARGE:  cpu time    0.14: real time    0.14
    MIXING:  cpu time    0.04: real time    0.04
    --------------------------------------------
      LOOP:  cpu time    1.78: real time    1.78

 eigenvalue-minimisations  :    16
 total energy-change (2. order) : 0.3115053E-05  (-0.6291094E-06)
 number of electron       8.0000007 magnetization 
 augmentation part        0.1889612 magnetization 

 Broyden mixing:
  rms(total) = 0.25812E-03    rms(broyden)= 0.25810E-03
  rms(prec ) = 0.28866E-03
  weight for this iteration     100.00

 eigenvalues of (default mixing * dielectric matrix)
  average eigenvalue GAMMA=   1.5697
  2.1616  2.1616  1.0411  1.2420  1.2420

 Free energy of the ion-electron system (eV)
  ---------------------------------------------------
  alpha Z        PSCENC =         0.02989916
  Ewald energy   TEWEN  =       193.09137136
  -1/2 Hartree   DENC   =      -347.85641063
  -exchange  EXHF       =         0.00000000
  -V(xc)+E(xc)   XCENC  =        25.39314487
  PAW double counting   =        89.39793247      -90.83835967
  entropy T*S    EENTRO =         0.00000000
  eigenvalues    EBANDS =       -90.86075033
  atomic energy  EATOM  =       197.52610234
  ---------------------------------------------------
  free energy    TOTEN  =       -24.11707042 eV

  energy without entropy =      -24.11707042  energy(sigma->0) =      -24.11707042


--------------------------------------------------------------------------------------------------------




----------------------------------------- Iteration    7(   7)  ---------------------------------------


    POTLOK:  cpu time    1.14: real time    1.14
    SETDIJ:  cpu time    0.00: real time    0.00
    EDDIAG:  cpu time    0.10: real time    0.10
  RMM-DIIS:  cpu time    0.33: real time    0.33
    ORTHCH:  cpu time    0.00: real time    0.00
       DOS:  cpu time    0.00: real time    0.00
    CHARGE:  cpu time    0.14: real time    0.14
    MIXING:  cpu time    0.04: real time    0.04
    --------------------------------------------
      LOOP:  cpu time    1.76: real time    1.76

 eigenvalue-minimisations  :    15
 total energy-change (2. order) :-0.1126366E-05  (-0.3601723E-06)
 number of electron       8.0000007 magnetization 
 augmentation part        0.1889475 magnetization 

 Broyden mixing:
  rms(total) = 0.78213E-04    rms(broyden)= 0.77962E-04
  rms(prec ) = 0.92887E-04
  weight for this iteration     100.00

 eigenvalues of (default mixing * dielectric matrix)
  average eigenvalue GAMMA=   1.6175
  2.9268  2.2269  1.1917  1.1917  1.1672  1.0007

 Free energy of the ion-electron system (eV)
  ---------------------------------------------------
  alpha Z        PSCENC =         0.02989916
  Ewald energy   TEWEN  =       193.09137136
  -1/2 Hartree   DENC   =      -347.86319632
  -exchange  EXHF       =         0.00000000
  -V(xc)+E(xc)   XCENC  =        25.39341833
  PAW double counting   =        89.40392415      -90.84445205
  entropy T*S    EENTRO =         0.00000000
  eigenvalues    EBANDS =       -90.85413851
  atomic energy  EATOM  =       197.52610234
  ---------------------------------------------------
  free energy    TOTEN  =       -24.11707154 eV

  energy without entropy =      -24.11707154  energy(sigma->0) =      -24.11707154


--------------------------------------------------------------------------------------------------------




----------------------------------------- Iteration    7(   8)  ---------------------------------------


    POTLOK:  cpu time    1.15: real time    1.15
    SETDIJ:  cpu time    0.00: real time    0.00
    EDDIAG:  cpu time    0.10: real time    0.10
  RMM-DIIS:  cpu time    0.27: real time    0.27
    ORTHCH:  cpu time    0.00: real time    0.00
       DOS:  cpu time    0.00: real time    0.00
    --------------------------------------------
      LOOP:  cpu time    1.52: real time    1.52

 eigenvalue-minimisations  :    12
 total energy-change (2. order) :-0.8630273E-06  (-0.4246768E-07)
 number of electron       8.0000007 magnetization 
 augmentation part        0.1889475 magnetization 

 Free energy of the ion-electron system (eV)
  ---------------------------------------------------
  alpha Z        PSCENC =         0.02989916
  Ewald energy   TEWEN  =       193.09137136
  -1/2 Hartree   DENC   =      -347.86388217
  -exchange  EXHF       =         0.00000000
  -V(xc)+E(xc)   XCENC  =        25.39344663
  PAW double counting   =        89.40574752      -90.84627963
  entropy T*S    EENTRO =         0.00000000
  eigenvalues    EBANDS =       -90.85347763
  atomic energy  EATOM  =       197.52610234
  ---------------------------------------------------
  free energy    TOTEN  =       -24.11707241 eV

  energy without entropy =      -24.11707241  energy(sigma->0) =      -24.11707241


--------------------------------------------------------------------------------------------------------




 average (electrostatic) potential at core
  the test charge radii are     0.6991  0.5201
  (the norm of the test charge is              1.0000)
       1 -59.1302       2 -41.6461       3 -41.6440       4 -41.6450       5 -41.6447



 E-fermi :  -8.9298     XC(G=0):  -0.0744     alpha+bet : -0.0264


 k-point   1 :       0.0000    0.0000    0.0000
  band No.  band energies     occupation 
      1     -17.0393      2.00000
      2      -9.4710      2.00000
      3      -9.4585      2.00000
      4      -9.4579      2.00000
      5      -0.4539      0.00000
      6       0.0857      0.00000
      7       0.3408      0.00000
      8       0.3415      0.00000


--------------------------------------------------------------------------------------------------------


 soft charge-density along one line, spin component            1
         0         1         2         3         4         5         6         7         8         9
 total charge-density along one line

 pseudopotential strength for first ion, spin component:            1
 10.365   0.018   0.000   0.000   0.000   0.000   0.000   0.000
  0.018  -0.001   0.000   0.000   0.000   0.000   0.000   0.000
  0.000   0.000  -4.329   0.000   0.000  -0.015   0.000   0.000
  0.000   0.000   0.000  -4.329   0.000   0.000  -0.015   0.000
  0.000   0.000   0.000   0.000  -4.329   0.000   0.000  -0.015
  0.000   0.000  -0.015   0.000   0.000  -0.849   0.000   0.000
  0.000   0.000   0.000  -0.015   0.000   0.000  -0.849   0.000
  0.000   0.000   0.000   0.000  -0.015   0.000   0.000  -0.849
 total augmentation occupancy for first ion, spin component:            1
  1.424  -1.122   0.000   0.000   0.000   0.000   0.000   0.000
 -1.122   0.883   0.000  -0.004   0.000   0.000  -0.001   0.000
  0.000   0.000   1.137   0.000   0.000   0.191   0.000   0.000
  0.000  -0.004   0.000   1.136   0.000   0.000   0.191   0.000
  0.000   0.000   0.000   0.000   1.136   0.000   0.000   0.191
  0.000   0.000   0.191   0.000   0.000   0.032   0.000   0.000
  0.000  -0.001   0.000   0.191   0.000   0.000   0.032   0.000
  0.000   0.000   0.000   0.000   0.191   0.000   0.000   0.032


------------------------ aborting loop because EDIFF is reached ----------------------------------------


    CHARGE:  cpu time    0.14: real time    0.14
    FORLOC:  cpu time    0.07: real time    0.07
    FORNL :  cpu time    0.14: real time    0.14
    FORHAR:  cpu time    0.36: real time    0.36
    MIXING:  cpu time    0.05: real time    0.05
    FORVDW:  cpu time    0.00: real time    0.00

 VOLUME and BASIS-vectors are now :
 -----------------------------------------------------------------------------
  energy-cutoff  :      400.00
  volume of cell :     8000.00
      direct lattice vectors                 reciprocal lattice vectors
    20.000000000  0.000000000  0.000000000     0.050000000  0.000000000  0.000000000
     0.000000000 20.000000000  0.000000000     0.000000000  0.050000000  0.000000000
     0.000000000  0.000000000 20.000000000     0.000000000  0.000000000  0.050000000

  length of vectors
    20.000000000 20.000000000 20.000000000     0.050000000  0.050000000  0.050000000


 FORCES acting on ions
    electron-ion (+dipol)            ewald-force                    non-local-force                 convergence-correction
 -----------------------------------------------------------------------------------------------
   0.831E-02 0.336E-02 0.275E+00   -.103E-01 -.349E-02 -.292E+00   -.373E-02 0.222E-03 0.382E-01   -.501E-04 0.398E-05 -.563E-03
   -.178E-03 0.345E-03 0.533E+02   0.448E-04 -.332E-03 -.588E+02   -.904E-04 0.304E-04 0.554E+01   -.580E-05 0.570E-06 0.562E-03
   0.502E+02 0.436E+00 -.179E+02   -.554E+02 -.481E+00 0.197E+02   0.522E+01 0.455E-01 -.186E+01   0.578E-03 0.557E-05 -.348E-03
   -.255E+02 0.433E+02 -.179E+02   0.281E+02 -.478E+02 0.197E+02   -.265E+01 0.450E+01 -.186E+01   -.297E-03 0.493E-03 -.344E-03
   -.247E+02 -.437E+02 -.179E+02   0.273E+02 0.482E+02 0.197E+02   -.257E+01 -.454E+01 -.186E+01   -.288E-03 -.497E-03 -.344E-03
 -----------------------------------------------------------------------------------------------
   0.275E-02 0.624E-03 0.109E-01   -.355E-14 0.000E+00 -.355E-14   -.516E-02 -.167E-03 -.186E-02   -.627E-04 0.576E-05 -.104E-02


 POSITION                                       TOTAL-FORCE (eV/Angst)
 -----------------------------------------------------------------------------------
      0.00002     -0.00001      1.09753        -0.005276      0.000007      0.018647
      0.00003     -0.00001      0.00056         0.000265     -0.000049      0.044262
     18.96677     19.99103      1.46514         0.024507      0.000305     -0.021804
      0.52441     19.10976      1.46507        -0.009992      0.017654     -0.020504
      0.50877      0.89923      1.46508        -0.009504     -0.017917     -0.020600
 -----------------------------------------------------------------------------------
    total drift:                               -0.002470      0.000463      0.008048


--------------------------------------------------------------------------------------------------------



  FREE ENERGIE OF THE ION-ELECTRON SYSTEM (eV)
  ---------------------------------------------------
  free  energy   TOTEN  =       -24.11707241 eV

  energy  without entropy=      -24.11707241  energy(sigma->0) =      -24.11707241

 d Force = 0.8566320E-03[ 0.428E-03, 0.129E-02]  d Energy = 0.8654924E-03-0.886E-05
 d Force =-0.4503190E+00[-0.450E+00,-0.451E+00]  d Ewald  =-0.4503216E+00 0.260E-05


--------------------------------------------------------------------------------------------------------


    POTLOK:  cpu time    1.16: real time    1.16


--------------------------------------------------------------------------------------------------------


 stress matrix after NEB project (eV)
      0.00000      0.00000      0.00000
      0.00000      0.00000      0.00000
      0.00000      0.00000      0.00000
  FORCES: max atom, RMS     0.044262    0.031870
  FORCE total and by dimension    0.071263    0.044262
  Stress total and by dimension    0.000000    0.000000
 Conjugate gradient step on ions:
 trial-energy change:   -0.000865  1 .order   -0.000857   -0.001285   -0.000428
  (g-gl).g = 0.105E-02      g.g   = 0.106E-02  gl.gl    = 0.343E-02
 g(Force)  = 0.106E-02   g(Stress)= 0.000E+00 ortho     =-0.908E-07
 gamma     =   0.30742
 trial     =   1.20986
 opt step  =   1.76332  (harmonic =   1.81332) maximal distance =0.00733790
 next E    =   -24.117171   (d E  =  -0.00096)


--------------------------------------------------------------------------------------------------------


  
 reached required accuracy - stopping structural energy minimisation
     LOOP+:  cpu time   15.82: real time   15.83
    4ORBIT:  cpu time    0.00: real time    0.00

 total amount of memory used by VASP on root node    80933. kBytes
========================================================================

   base      :      30000. kBytes
   nonlr-proj:        141. kBytes
   fftplans  :      18757. kBytes
   grid      :      30870. kBytes
   one-center:          3. kBytes
   wavefun   :       1162. kBytes

  
  
 General timing and accounting informations for this job:
 ========================================================
  
                  Total CPU time used (sec):      130.437
                            User time (sec):      130.144
                          System time (sec):        0.293
                         Elapsed time (sec):      131.602
  
                   Maximum memory used (kb):           0.
                   Average memory used (kb):           0.
  
                          Minor page faults:        27254
                          Major page faults:           46
                 Voluntary context switches:          182
