    5    5  200    1
  0.1600000E+04  0.2000000E-08  0.2000000E-08  0.2000000E-08  0.5000000E-15
  1.000000000000000E-004
  CAR 
 unknown system                          
    8    1    8
 
  0.0000000E+00  0.0000000E+00  0.0000000E+00  0.1000000E+01
   1      -16.991413
   2       -9.403721
   3       -9.402149
   4       -9.385163
   5       -0.412255
   6        0.069100
   7        0.296592
   8        0.302740
