unknown system                          
           1
    16.329932   -8.164966   -8.164966
     0.000000   14.142136  -14.142136
    11.547005   11.547005   11.547005
   C    H 
   1   4
Direct configuration=     1
   0.35002533  0.54810021  0.51972919
   0.34133978  0.60224353  0.52048999
   0.39238969  0.53689956  0.48671368
   0.30508899  0.52263266  0.50128445
   0.36140342  0.53058472  0.57046382
Direct configuration=     2
   0.35004113  0.54801351  0.51968586
   0.34133193  0.60229297  0.52046906
   0.39240639  0.53693273  0.48674512
   0.30506377  0.52265367  0.50131586
   0.36140398  0.53056781  0.57046523
Direct configuration=     3
   0.35003733  0.54807681  0.51972615
   0.34133850  0.60225006  0.52047302
   0.39241642  0.53691947  0.48672494
   0.30505462  0.52264008  0.50130049
   0.36140034  0.53057427  0.57045653
Direct configuration=     4
   0.35003636  0.54808298  0.51972428
   0.34133903  0.60224514  0.52047866
   0.39240242  0.53691260  0.48672211
   0.30507058  0.52264148  0.50129428
   0.36139882  0.53057849  0.57046180
Direct configuration=     5
   0.35003551  0.54810087  0.51975087
   0.34133782  0.60224127  0.52046969
   0.39239142  0.53690469  0.48671719
   0.30508667  0.52264284  0.50128793
   0.36139580  0.53057102  0.57045545
Direct configuration=     6
   0.35002285  0.54809951  0.51972819
   0.34134075  0.60223606  0.52046682
   0.39240394  0.53691224  0.48672425
   0.30508032  0.52264777  0.50129867
   0.36139935  0.53056511  0.57046319
Direct configuration=     7
   0.35003563  0.54809085  0.51973563
   0.34133876  0.60224650  0.52046774
   0.39239848  0.53691068  0.48672510
   0.30507742  0.52264501  0.50129398
   0.36139692  0.53056765  0.57045867
Direct configuration=     8
   0.35003842  0.54808894  0.51972173
   0.34134014  0.60224734  0.52048394
   0.39238612  0.53690138  0.48671897
   0.30508807  0.52264296  0.50128313
   0.36139446  0.53058008  0.57047337
Direct configuration=     9
   0.35004216  0.54811145  0.51974934
   0.34134063  0.60223769  0.52047736
   0.39239121  0.53689817  0.48671259
   0.30508143  0.52263724  0.50127914
   0.36139178  0.53057614  0.57046269
Direct configuration=    10
   0.35003816  0.54809775  0.51973265
   0.34133915  0.60224405  0.52046985
   0.39239650  0.53690649  0.48672309
   0.30508009  0.52264510  0.50129181
   0.36139332  0.53056730  0.57046372
Direct configuration=    11
   0.34997384  0.54811204  0.51977018
   0.34134485  0.60226080  0.52044619
   0.39240099  0.53689636  0.48670793
   0.30512647  0.52265126  0.50129327
   0.36140105  0.53054023  0.57046356
Direct configuration=    12
   0.35008798  0.54803480  0.51965061
   0.34133429  0.60229577  0.52048953
   0.39233066  0.53691011  0.48675888
   0.30509779  0.52264525  0.50128196
   0.36139650  0.53057477  0.57050014
Direct configuration=    13
   0.35006528  0.54803878  0.51974167
   0.34133269  0.60226246  0.52046111
   0.39240455  0.53692390  0.48673808
   0.30505607  0.52265993  0.50129795
   0.36138861  0.53057562  0.57044232
Direct configuration=    14
   0.35007120  0.54813763  0.51976158
   0.34134434  0.60221692  0.52048947
   0.39237341  0.53688797  0.48670662
   0.30506916  0.52262673  0.50125024
   0.36138911  0.53059145  0.57047322
Direct configuration=    15
   0.34995745  0.54808742  0.51972250
   0.34134655  0.60222840  0.52049213
   0.39242107  0.53688691  0.48668940
   0.30512578  0.52266935  0.50128564
   0.36139636  0.53058861  0.57049146
Direct configuration=    16
   0.35004786  0.54809086  0.51970244
   0.34134180  0.60224150  0.52049625
   0.39237659  0.53689297  0.48672097
   0.30509045  0.52264639  0.50127214
   0.36139050  0.53058896  0.57048933
Direct configuration=    17
   0.35003499  0.54809252  0.51973972
   0.34134397  0.60225144  0.52050167
   0.39238747  0.53688059  0.48670750
   0.30509753  0.52263876  0.50126844
   0.36138326  0.53059739  0.57046380
Direct configuration=    18
   0.35004880  0.54815531  0.51976769
   0.34134927  0.60221716  0.52051716
   0.39239061  0.53686256  0.48669126
   0.30508100  0.52261547  0.50124906
   0.36137753  0.53061019  0.57045596
Direct configuration=    19
   0.35000238  0.54810726  0.51972104
   0.34134821  0.60224592  0.52051444
   0.39239267  0.53686794  0.48669804
   0.30511937  0.52263982  0.50126964
   0.36138458  0.53059975  0.57047796
Direct configuration=    20
   0.35004473  0.54807558  0.51976187
   0.34134464  0.60227268  0.52048025
   0.39237929  0.53688952  0.48672117
   0.30509358  0.52264031  0.50126717
   0.36138497  0.53058260  0.57045066
Direct configuration=    21
   0.35005761  0.54809895  0.51971472
   0.34134944  0.60224688  0.52049857
   0.39236654  0.53688752  0.48672129
   0.30509044  0.52263650  0.50126136
   0.36138317  0.53059085  0.57048518
Direct configuration=    22
   0.35005770  0.54811320  0.51972083
   0.34135005  0.60224022  0.52049529
   0.39237076  0.53688670  0.48672036
   0.30508633  0.52263391  0.50126242
   0.36138236  0.53058667  0.57048222
Direct configuration=    23
   0.35003036  0.54807425  0.51974077
   0.34134054  0.60224803  0.52046049
   0.39239853  0.53690451  0.48672246
   0.30508995  0.52266835  0.50128307
   0.36138783  0.53056555  0.57047434
Direct configuration=    24
   0.35007537  0.54811278  0.51978758
   0.34134016  0.60223192  0.52046466
   0.39239085  0.53689374  0.48671592
   0.30506207  0.52264657  0.50126025
   0.36137877  0.53057568  0.57045272
Direct configuration=    25
   0.35005995  0.54807842  0.51974852
   0.34133983  0.60224786  0.52047523
   0.39237886  0.53689403  0.48671937
   0.30508523  0.52265867  0.50126175
   0.36138334  0.53058172  0.57047626
Direct configuration=    26
   0.35006150  0.54809006  0.51972183
   0.34134450  0.60223663  0.52047015
   0.39238737  0.53690477  0.48672681
   0.30507569  0.52265846  0.50127853
   0.36137816  0.53057077  0.57048381
Direct configuration=    27
   0.35003139  0.54806270  0.51973619
   0.34134358  0.60224573  0.52047117
   0.39241237  0.53690292  0.48671388
   0.30508810  0.52267187  0.50128981
   0.36137177  0.53057747  0.57047007
Direct configuration=    28
   0.35005007  0.54808309  0.51973976
   0.34134534  0.60223596  0.52046775
   0.39240418  0.53690419  0.48671829
   0.30507594  0.52266391  0.50128316
   0.36137168  0.53057354  0.57047217
Direct configuration=    29
   0.35004047  0.54810102  0.51975103
   0.34134452  0.60223685  0.52045793
   0.39240444  0.53689748  0.48672049
   0.30508257  0.52266504  0.50128087
   0.36137521  0.53056031  0.57047080
Direct configuration=    30
   0.35004524  0.54809230  0.51974062
   0.34134592  0.60224177  0.52046513
   0.39239862  0.53689742  0.48672340
   0.30508269  0.52266263  0.50127886
   0.36137474  0.53056657  0.57047313
