       N       E                     dE             d eps       ncg     rms          rms(c)
DAV:   1    -0.336458373443E+01   -0.33646E+01   -0.21822E+02    10   0.103E+02
DAV:   2    -0.740554625343E+01   -0.40410E+01   -0.40410E+01    10   0.366E+01
DAV:   3    -0.749139893780E+01   -0.85853E-01   -0.85853E-01    15   0.811E+00
DAV:   4    -0.749145963609E+01   -0.60698E-04   -0.60698E-04    20   0.203E-01
DAV:   5    -0.749145963893E+01   -0.28348E-08   -0.28365E-08    15   0.143E-03    0.447E+00
RMM:   6    -0.703595749814E+01    0.45550E+00   -0.17475E-01    10   0.211E+00    0.244E+00
RMM:   7    -0.678474567186E+01    0.25121E+00   -0.50440E-01    10   0.347E+00    0.265E-01
RMM:   8    -0.678649585979E+01   -0.17502E-02   -0.61129E-03    10   0.484E-01    0.210E-01
RMM:   9    -0.678290335622E+01    0.35925E-02   -0.62087E-03    10   0.404E-01    0.300E-02
RMM:  10    -0.678486369395E+01   -0.19603E-02   -0.13783E-03    10   0.254E-01    0.436E-02
RMM:  11    -0.678536428386E+01   -0.50059E-03   -0.85505E-05    10   0.556E-02    0.955E-03
RMM:  12    -0.678731778438E+01   -0.19535E-02   -0.11261E-03    10   0.215E-01    0.886E-03
RMM:  13    -0.678742464509E+01   -0.10686E-03   -0.15214E-05    10   0.184E-02    0.283E-03
RMM:  14    -0.678762020327E+01   -0.19556E-03   -0.13257E-05    10   0.288E-02    0.188E-03
RMM:  15    -0.678764551310E+01   -0.25310E-04   -0.14312E-06    10   0.745E-03    0.883E-04
RMM:  16    -0.678769303852E+01   -0.47525E-04   -0.35140E-06    10   0.125E-02    0.902E-04
RMM:  17    -0.678770238403E+01   -0.93455E-05   -0.40054E-07     9   0.437E-03    0.569E-04
RMM:  18    -0.678770719977E+01   -0.48157E-05   -0.15274E-07     9   0.362E-03    0.295E-04
RMM:  19    -0.678770828525E+01   -0.10855E-05   -0.45526E-08     9   0.143E-03    0.232E-04
RMM:  20    -0.678770835232E+01   -0.67066E-07    0.00000E+00     8   0.620E-04
   1 F= -.67877084E+01 E0= -.67877084E+01  d E =-.678771E+01
       N       E                     dE             d eps       ncg     rms          rms(c)
DAV:   1    -0.678892875921E+01   -0.12205E-02   -0.78794E-02    15   0.212E+00    0.139E-01
RMM:   2    -0.678863845842E+01    0.29030E-03   -0.23072E-04    10   0.748E-02    0.748E-02
RMM:   3    -0.678851443362E+01    0.12402E-03   -0.32237E-04    10   0.840E-02    0.460E-03
RMM:   4    -0.678852029574E+01   -0.58621E-05   -0.86051E-06    10   0.170E-02    0.105E-03
RMM:   5    -0.678852084768E+01   -0.55194E-06   -0.39373E-07     9   0.463E-03
   2 F= -.67885208E+01 E0= -.67885208E+01  d E =-.812495E-03
       N       E                     dE             d eps       ncg     rms          rms(c)
DAV:   1    -0.678933595366E+01   -0.81566E-03   -0.13434E-02    10   0.869E-01    0.565E-02
RMM:   2    -0.678929208060E+01    0.43873E-04   -0.54410E-05    10   0.514E-02    0.312E-02
RMM:   3    -0.678927661328E+01    0.15467E-04   -0.57590E-05    10   0.355E-02    0.213E-03
RMM:   4    -0.678927807738E+01   -0.14641E-05   -0.73124E-07     9   0.493E-03    0.104E-03
RMM:   5    -0.678927921001E+01   -0.11326E-05   -0.45612E-07     9   0.479E-03    0.440E-04
RMM:   6    -0.678927934339E+01   -0.13337E-06   -0.24907E-08     9   0.130E-03
   3 F= -.67892793E+01 E0= -.67892793E+01  d E =-.157099E-02
