<?xml version="1.0" encoding="ISO-8859-1"?>
<modeling>
 <generator>
  <i name="program" type="string">vasp </i>
  <i name="version" type="string">5.3.3  </i>
  <i name="subversion" type="string">18Dez12 (build Sep 09 2013 12:05:18) gamma-only                       parallel </i>
  <i name="platform" type="string">LinuxIFC </i>
  <i name="date" type="string">2017 04 23 </i>
  <i name="time" type="string">22:49:37 </i>
 </generator>
 <incar>
  <i type="string" name="PREC">normal</i>
  <i type="string" name="ALGO"> FAST</i>
  <i type="int" name="NSIM">     4</i>
  <i type="int" name="ISPIN">     1</i>
  <i type="int" name="NELM">   500</i>
  <i type="int" name="IBRION">     2</i>
  <i name="EDIFF">      0.00000100</i>
  <i name="EDIFFG">     -0.05000000</i>
  <i type="int" name="NSW">  2500</i>
  <i type="int" name="ISIF">     0</i>
  <i type="int" name="ISYM">     0</i>
  <i name="ENCUT">    400.00000000</i>
  <i name="POTIM">      0.25000000</i>
  <i type="string" name="LREAL"> auto</i>
  <i type="logical" name="LPLANE"> T  </i>
  <i type="int" name="ISMEAR">     0</i>
  <i name="SIGMA">      0.10000000</i>
  <i type="logical" name="LWAVE"> F  </i>
  <i type="logical" name="LCHARG"> F  </i>
  <i type="logical" name="LSCALU"> F  </i>
  <i type="int" name="NELM">   500</i>
  <i type="string" name="GGA"> 91</i>
  <i type="int" name="VOSKOWN">     1</i>
 </incar>
 <kpoints>
  <varray name="kpointlist" >
   <v>       0.00000000       0.00000000       0.00000000 </v>
  </varray>
  <varray name="weights" >
   <v>       1.00000000 </v>
  </varray>
 </kpoints>
 <parameters>
  <separator name="general" >
   <i type="string" name="SYSTEM">unknown system</i>
   <i type="logical" name="LCOMPAT"> F  </i>
  </separator>
  <separator name="electronic" >
   <i type="string" name="PREC">normal</i>
   <i name="ENMAX">    400.00000000</i>
   <i name="ENAUG">    400.00000000</i>
   <i name="EDIFF">      0.00000100</i>
   <i type="int" name="IALGO">    68</i>
   <i type="int" name="IWAVPR">    11</i>
   <i type="int" name="NBANDS">     5</i>
   <i name="NELECT">      2.00000000</i>
   <i type="int" name="TURBO">     0</i>
   <i type="int" name="IRESTART">     0</i>
   <i type="int" name="NREBOOT">     0</i>
   <i type="int" name="NMIN">     0</i>
   <i name="EREF">      0.00000000</i>
   <separator name="electronic smearing" >
    <i type="int" name="ISMEAR">     0</i>
    <i name="SIGMA">      0.10000000</i>
    <i name="KSPACING">      0.50000000</i>
    <i type="logical" name="KGAMMA"> T  </i>
   </separator>
   <separator name="electronic projectors" >
    <i type="logical" name="LREAL"> T  </i>
    <v name="ROPT">     -0.00050000</v>
    <i type="int" name="LMAXPAW">  -100</i>
    <i type="int" name="LMAXMIX">     2</i>
    <i type="logical" name="NLSPLINE"> F  </i>
   </separator>
   <separator name="electronic startup" >
    <i type="int" name="ISTART">     0</i>
    <i type="int" name="ICHARG">     2</i>
    <i type="int" name="INIWAV">     1</i>
   </separator>
   <separator name="electronic spin" >
    <i type="int" name="ISPIN">     1</i>
    <i type="logical" name="LNONCOLLINEAR"> F  </i>
    <v name="MAGMOM">      1.00000000      1.00000000</v>
    <i name="NUPDOWN">     -1.00000000</i>
    <i type="logical" name="LSORBIT"> F  </i>
    <v name="SAXIS">      0.00000000      0.00000000      1.00000000</v>
    <i type="logical" name="LSPIRAL"> F  </i>
    <v name="QSPIRAL">      0.00000000      0.00000000      0.00000000</v>
    <i type="logical" name="LZEROZ"> F  </i>
   </separator>
   <separator name="electronic exchange-correlation" >
    <i type="logical" name="LASPH"> F  </i>
    <i type="logical" name="LMETAGGA"> F  </i>
   </separator>
   <separator name="electronic convergence" >
    <i type="int" name="NELM">   500</i>
    <i type="int" name="NELMDL">     0</i>
    <i type="int" name="NELMIN">     2</i>
    <i name="ENINI">    400.00000000</i>
    <separator name="electronic convergence detail" >
     <i type="logical" name="LDIAG"> T  </i>
     <i type="logical" name="LSUBROT"> T  </i>
     <i name="WEIMIN">      0.00100000</i>
     <i name="EBREAK">      0.00000005</i>
     <i name="DEPER">      0.30000000</i>
     <i type="int" name="NRMM">     4</i>
     <i name="TIME">      0.40000000</i>
    </separator>
   </separator>
   <separator name="electronic mixer" >
    <i name="AMIX">      0.40000000</i>
    <i name="BMIX">      1.00000000</i>
    <i name="AMIN">      0.10000000</i>
    <i name="AMIX_MAG">      1.60000000</i>
    <i name="BMIX_MAG">      1.00000000</i>
    <separator name="electronic mixer details" >
     <i type="int" name="IMIX">     4</i>
     <i type="int" name="MAXMIX">   -45</i>
     <i name="WC">    100.00000000</i>
     <i type="int" name="INIMIX">     1</i>
     <i type="int" name="MIXPRE">     1</i>
     <i type="int" name="MREMOVE">     5</i>
    </separator>
   </separator>
   <separator name="electronic dipolcorrection" >
    <i type="logical" name="LDIPOL"> F  </i>
    <i type="logical" name="LMONO"> F  </i>
    <i type="int" name="IDIPOL">     0</i>
    <i name="EPSILON">      1.00000000</i>
    <v name="DIPOL">   -100.00000000   -100.00000000   -100.00000000</v>
    <i name="EFIELD">      0.00000000</i>
   </separator>
  </separator>
  <separator name="grids" >
   <i type="int" name="NGX">    98</i>
   <i type="int" name="NGY">    98</i>
   <i type="int" name="NGZ">    98</i>
   <i type="int" name="NGXF">   196</i>
   <i type="int" name="NGYF">   196</i>
   <i type="int" name="NGZF">   196</i>
   <i type="logical" name="ADDGRID"> F  </i>
  </separator>
  <separator name="ionic" >
   <i type="int" name="NSW">  2500</i>
   <i type="int" name="IBRION">     2</i>
   <i type="int" name="ISIF">     0</i>
   <i name="PSTRESS">      0.00000000</i>
   <i name="EDIFFG">     -0.05000000</i>
   <i type="int" name="NFREE">     1</i>
   <i name="POTIM">      0.25000000</i>
   <i name="SMASS">     -3.00000000</i>
   <i name="SCALEE">      1.00000000</i>
  </separator>
  <separator name="ionic md" >
   <i name="TEBEG">      0.00010000</i>
   <i name="TEEND">      0.00010000</i>
   <i type="int" name="NBLOCK">     1</i>
   <i type="int" name="KBLOCK">  2500</i>
   <i type="int" name="NPACO">   256</i>
   <i name="APACO">     16.00000000</i>
  </separator>
  <separator name="symmetry" >
   <i type="int" name="ISYM">     0</i>
   <i name="SYMPREC">      0.00001000</i>
  </separator>
  <separator name="dos" >
   <i type="logical" name="LORBIT"> F  </i>
   <v name="RWIGS">     -1.00000000</v>
   <i type="int" name="NEDOS">   301</i>
   <i name="EMIN">     10.00000000</i>
   <i name="EMAX">    -10.00000000</i>
   <i name="EFERMI">      0.00000000</i>
  </separator>
  <separator name="writing" >
   <i type="int" name="NWRITE">     2</i>
   <i type="logical" name="LWAVE"> F  </i>
   <i type="logical" name="LCHARG"> F  </i>
   <i type="logical" name="LPARD"> F  </i>
   <i type="logical" name="LVTOT"> F  </i>
   <i type="logical" name="LVHAR"> F  </i>
   <i type="logical" name="LELF"> F  </i>
   <i type="logical" name="LOPTICS"> F  </i>
   <v name="STM">      0.00000000      0.00000000      0.00000000      0.00000000      0.00000000      0.00000000      0.00000000</v>
  </separator>
  <separator name="performance" >
   <i type="int" name="NPAR">     1</i>
   <i type="int" name="NSIM">     4</i>
   <i type="int" name="NBLK">    -1</i>
   <i type="logical" name="LPLANE"> T  </i>
   <i type="logical" name="LSCALAPACK"> T  </i>
   <i type="logical" name="LSCAAWARE"> F  </i>
   <i type="logical" name="LSCALU"> F  </i>
   <i type="logical" name="LASYNC"> F  </i>
   <i type="logical" name="LORBITALREAL"> F  </i>
  </separator>
  <separator name="miscellaneous" >
   <i type="int" name="IDIOT">     3</i>
   <i type="logical" name="LMUSIC"> F  </i>
   <v name="POMASS">      1.00000000</v>
   <v name="DARWINR">      0.00000000</v>
   <v name="DARWINV">      1.00000000</v>
   <i type="logical" name="LCORR"> T  </i>
  </separator>
  <i type="logical" name="GGA_COMPAT"> T  </i>
  <i type="logical" name="LBERRY"> F  </i>
  <i type="int" name="ICORELEVEL">     0</i>
  <i type="logical" name="LDAU"> F  </i>
  <i type="int" name="I_CONSTRAINED_M">     0</i>
  <separator name="electronic exchange-correlation" >
   <i type="string" name="GGA">91</i>
   <i type="int" name="VOSKOWN">     1</i>
   <i type="logical" name="LHFCALC"> F  </i>
   <i type="string" name="PRECFOCK"></i>
   <i type="logical" name="LSYMGRAD"> F  </i>
   <i type="logical" name="LHFONE"> F  </i>
   <i type="logical" name="LRHFCALC"> F  </i>
   <i type="logical" name="LTHOMAS"> F  </i>
   <i type="logical" name="LMODELHF"> F  </i>
   <i name="ENCUT4O">     -1.00000000</i>
   <i type="int" name="EXXOEP">     0</i>
   <i type="int" name="FOURORBIT">     0</i>
   <i name="AEXX">      0.00000000</i>
   <i name="HFALPHA">      0.00000000</i>
   <i name="MCALPHA">      0.00000000</i>
   <i name="ALDAX">      1.00000000</i>
   <i name="AGGAX">      1.00000000</i>
   <i name="ALDAC">      1.00000000</i>
   <i name="AGGAC">      1.00000000</i>
   <i type="int" name="NKREDX">     1</i>
   <i type="int" name="NKREDY">     1</i>
   <i type="int" name="NKREDZ">     1</i>
   <i type="logical" name="SHIFTRED"> F  </i>
   <i type="logical" name="ODDONLY"> F  </i>
   <i type="logical" name="EVENONLY"> F  </i>
   <i type="int" name="LMAXFOCK">     0</i>
   <i type="int" name="NMAXFOCKAE">     0</i>
   <i type="logical" name="LFOCKAEDFT"> F  </i>
   <i name="HFSCREEN">      0.00000000</i>
   <i name="HFSCREENC">      0.00000000</i>
   <i type="int" name="NBANDSGWLOW">     0</i>
  </separator>
  <separator name="vdW DFT" >
   <i type="logical" name="LUSE_VDW"> F  </i>
   <i name="Zab_VDW">     -0.84910000</i>
   <i name="PARAM1">      0.12340000</i>
   <i name="PARAM2">      1.00000000</i>
   <i name="PARAM3">      0.00000000</i>
  </separator>
  <separator name="model GW" >
   <i type="int" name="MODEL_GW">     0</i>
   <i name="MODEL_EPS0">   2400.00000000</i>
   <i name="MODEL_ALPHA">      1.00000000</i>
  </separator>
  <separator name="linear response parameters" >
   <i type="logical" name="LEPSILON"> F  </i>
   <i type="logical" name="LRPA"> F  </i>
   <i type="logical" name="LNABLA"> F  </i>
   <i type="logical" name="LVEL"> F  </i>
   <i type="int" name="KINTER">     0</i>
   <i name="CSHIFT">      0.10000000</i>
   <i name="OMEGAMAX">     -1.00000000</i>
   <i name="DEG_THRESHOLD">      0.00200000</i>
  </separator>
  <separator name="orbital magnetization" >
   <i type="logical" name="NUCIND"> F  </i>
   <v name="MAGPOS">      0.00000000      0.00000000      0.00000000</v>
   <i type="logical" name="LNICSALL"> T  </i>
   <i type="logical" name="ORBITALMAG"> F  </i>
   <i type="logical" name="LMAGBLOCH"> F  </i>
   <i type="logical" name="LCHIMAG"> F  </i>
   <i type="logical" name="LGAUGE"> T  </i>
   <i type="int" name="MAGATOM">     0</i>
   <v name="MAGDIPOL">      0.00000000      0.00000000      0.00000000</v>
   <v name="AVECCONST">      0.00000000      0.00000000      0.00000000</v>
  </separator>
  <separator name="response functions" >
   <i type="logical" name="LADDER"> F  </i>
   <i type="logical" name="LFXC"> F  </i>
   <i type="logical" name="LHARTREE"> T  </i>
   <i type="int" name="IBSE">     0</i>
   <i type="logical" name="LTCTE"> F  </i>
   <i type="logical" name="LTETE"> F  </i>
   <i type="logical" name="LTRIPLET"> F  </i>
   <i type="logical" name="LFXCEPS"> F  </i>
   <i type="logical" name="L2ORDER"> F  </i>
   <i type="logical" name="LUSEW"> F  </i>
   <i name="ENCUTGW">     -2.00000000</i>
   <i name="ENCUTGWSOFT">     -2.00000000</i>
   <i name="ENCUTLF">     -1.00000000</i>
   <i type="int" name="LMAXMP2">    -1</i>
   <i name="SCISSOR">      0.00000000</i>
   <i type="int" name="NOMEGA">     0</i>
   <i type="int" name="NOMEGAR">     0</i>
   <i type="int" name="NBANDSGW">    -1</i>
   <i type="int" name="NBANDSO">    -1</i>
   <i type="int" name="NBANDSV">    -1</i>
   <i type="int" name="NELM">   500</i>
   <i type="int" name="DIM">     3</i>
   <i type="int" name="ANTIRES">     0</i>
   <i name="OMEGAMAX">    -30.00000000</i>
   <i name="OMEGATL">   -200.00000000</i>
   <i type="int" name="OMEGAGRID">     0</i>
   <i name="CSHIFT">     -0.10000000</i>
   <i type="logical" name="SELFENERGY"> F  </i>
   <i type="logical" name="LSPECTRAL"> F  </i>
   <i type="logical" name="ODDONLYGW"> F  </i>
   <i type="logical" name="EVENONLYGW"> F  </i>
   <i type="int" name="NKREDLFX">     1</i>
   <i type="int" name="NKREDLFY">     1</i>
   <i type="int" name="NKREDLFZ">     1</i>
   <i type="int" name="MAXMEM">  1800</i>
   <i type="int" name="TELESCOPE">     0</i>
  </separator>
 </parameters>
 <atominfo>
  <atoms>       2 </atoms>
  <types>       1 </types>
  <array name="atoms" >
   <dimension dim="1">ion</dimension>
   <field type="string">element</field>
   <field type="int">atomtype</field>
   <set>
    <rc><c>H </c><c>   1</c></rc>
    <rc><c>H </c><c>   1</c></rc>
   </set>
  </array>
  <array name="atomtypes" >
   <dimension dim="1">type</dimension>
   <field type="int">atomspertype</field>
   <field type="string">element</field>
   <field>mass</field>
   <field>valence</field>
   <field type="string">pseudopotential</field>
   <set>
    <rc><c>   2</c><c>H </c><c>      1.00000000</c><c>      1.00000000</c><c> PAW_GGA H 07Jul1998                    </c></rc>
   </set>
  </array>
 </atominfo>
 <structure name="initialpos" >
  <crystal>
   <varray name="basis" >
    <v>      20.00000000       0.00000000       0.00000000 </v>
    <v>       0.00000000      20.00000000       0.00000000 </v>
    <v>       0.00000000       0.00000000      20.00000000 </v>
   </varray>
   <i name="volume">   8000.00000000 </i>
   <varray name="rec_basis" >
    <v>       0.05000000       0.00000000       0.00000000 </v>
    <v>       0.00000000       0.05000000       0.00000000 </v>
    <v>       0.00000000       0.00000000       0.05000000 </v>
   </varray>
  </crystal>
  <varray name="positions" >
   <v>       0.00000000       0.00000000       0.00000000 </v>
   <v>       0.00000000       0.00000000       0.03700000 </v>
  </varray>
 </structure>
 <calculation>
  <scstep>
   <time name="dav">    0.24    0.24</time>
   <time name="total">    1.60    1.60</time>
   <energy>
    <i name="alphaZ">      0.00122237 </i>
    <i name="ewald">     15.37559231 </i>
    <i name="hartreedc">    -24.67578669 </i>
    <i name="XCdc">      4.39332526 </i>
    <i name="pawpsdc">      1.58351580 </i>
    <i name="pawaedc">     -1.60057786 </i>
    <i name="eentropy">      0.00000000 </i>
    <i name="bandstr">    -23.48494209 </i>
    <i name="atom">     25.04306716 </i>
    <i name="e_fr_energy">     -3.36458373 </i>
    <i name="e_wo_entrp">     -3.36458373 </i>
    <i name="e_0_energy">     -3.36458373 </i>
   </energy>
  </scstep>
  <scstep>
   <time name="dav">    0.23    0.23</time>
   <time name="total">    0.23    0.23</time>
   <energy>
    <i name="e_fr_energy">     -7.40554625 </i>
    <i name="e_wo_entrp">     -7.40554625 </i>
    <i name="e_0_energy">     -7.40554625 </i>
   </energy>
  </scstep>
  <scstep>
   <time name="dav">    0.32    0.32</time>
   <time name="total">    0.32    0.32</time>
   <energy>
    <i name="e_fr_energy">     -7.49139894 </i>
    <i name="e_wo_entrp">     -7.49139894 </i>
    <i name="e_0_energy">     -7.49139894 </i>
   </energy>
  </scstep>
  <scstep>
   <time name="dav">    0.41    0.41</time>
   <time name="total">    0.41    0.41</time>
   <energy>
    <i name="e_fr_energy">     -7.49145964 </i>
    <i name="e_wo_entrp">     -7.49145964 </i>
    <i name="e_0_energy">     -7.49145964 </i>
   </energy>
  </scstep>
  <scstep>
   <time name="dav">    0.32    0.32</time>
   <time name="total">    0.47    0.47</time>
   <energy>
    <i name="e_fr_energy">     -7.49145964 </i>
    <i name="e_wo_entrp">     -7.49145964 </i>
    <i name="e_0_energy">     -7.49145964 </i>
   </energy>
  </scstep>
  <scstep>
   <time name="diag">    0.06    0.06</time>
   <time name="diis">    0.20    0.20</time>
   <time name="orth">    0.00    0.00</time>
   <time name="total">    1.69    1.69</time>
   <energy>
    <i name="e_fr_energy">     -7.03595750 </i>
    <i name="e_wo_entrp">     -7.03595750 </i>
    <i name="e_0_energy">     -7.03595750 </i>
   </energy>
  </scstep>
  <scstep>
   <time name="diag">    0.06    0.06</time>
   <time name="diis">    0.20    0.20</time>
   <time name="orth">    0.00    0.00</time>
   <time name="total">    1.70    1.70</time>
   <energy>
    <i name="e_fr_energy">     -6.78474567 </i>
    <i name="e_wo_entrp">     -6.78474567 </i>
    <i name="e_0_energy">     -6.78474567 </i>
   </energy>
  </scstep>
  <scstep>
   <time name="diag">    0.06    0.06</time>
   <time name="diis">    0.20    0.20</time>
   <time name="orth">    0.00    0.00</time>
   <time name="total">    1.71    1.71</time>
   <energy>
    <i name="e_fr_energy">     -6.78649586 </i>
    <i name="e_wo_entrp">     -6.78649586 </i>
    <i name="e_0_energy">     -6.78649586 </i>
   </energy>
  </scstep>
  <scstep>
   <time name="diag">    0.06    0.06</time>
   <time name="diis">    0.20    0.20</time>
   <time name="orth">    0.00    0.00</time>
   <time name="total">    1.71    1.72</time>
   <energy>
    <i name="e_fr_energy">     -6.78290336 </i>
    <i name="e_wo_entrp">     -6.78290336 </i>
    <i name="e_0_energy">     -6.78290336 </i>
   </energy>
  </scstep>
  <scstep>
   <time name="diag">    0.06    0.06</time>
   <time name="diis">    0.20    0.20</time>
   <time name="orth">    0.00    0.00</time>
   <time name="total">    1.72    1.72</time>
   <energy>
    <i name="e_fr_energy">     -6.78486369 </i>
    <i name="e_wo_entrp">     -6.78486369 </i>
    <i name="e_0_energy">     -6.78486369 </i>
   </energy>
  </scstep>
  <scstep>
   <time name="diag">    0.06    0.06</time>
   <time name="diis">    0.20    0.20</time>
   <time name="orth">    0.00    0.00</time>
   <time name="total">    1.73    1.73</time>
   <energy>
    <i name="e_fr_energy">     -6.78536428 </i>
    <i name="e_wo_entrp">     -6.78536428 </i>
    <i name="e_0_energy">     -6.78536428 </i>
   </energy>
  </scstep>
  <scstep>
   <time name="diag">    0.06    0.06</time>
   <time name="diis">    0.20    0.20</time>
   <time name="orth">    0.00    0.00</time>
   <time name="total">    1.74    1.81</time>
   <energy>
    <i name="e_fr_energy">     -6.78731778 </i>
    <i name="e_wo_entrp">     -6.78731778 </i>
    <i name="e_0_energy">     -6.78731778 </i>
   </energy>
  </scstep>
  <scstep>
   <time name="diag">    0.06    0.06</time>
   <time name="diis">    0.20    0.20</time>
   <time name="orth">    0.00    0.00</time>
   <time name="total">    1.75    1.75</time>
   <energy>
    <i name="e_fr_energy">     -6.78742465 </i>
    <i name="e_wo_entrp">     -6.78742465 </i>
    <i name="e_0_energy">     -6.78742465 </i>
   </energy>
  </scstep>
  <scstep>
   <time name="diag">    0.06    0.06</time>
   <time name="diis">    0.20    0.20</time>
   <time name="orth">    0.00    0.00</time>
   <time name="total">    1.76    1.76</time>
   <energy>
    <i name="e_fr_energy">     -6.78762020 </i>
    <i name="e_wo_entrp">     -6.78762020 </i>
    <i name="e_0_energy">     -6.78762020 </i>
   </energy>
  </scstep>
  <scstep>
   <time name="diag">    0.06    0.06</time>
   <time name="diis">    0.20    0.20</time>
   <time name="orth">    0.00    0.00</time>
   <time name="total">    1.76    1.81</time>
   <energy>
    <i name="e_fr_energy">     -6.78764551 </i>
    <i name="e_wo_entrp">     -6.78764551 </i>
    <i name="e_0_energy">     -6.78764551 </i>
   </energy>
  </scstep>
  <scstep>
   <time name="diag">    0.06    0.06</time>
   <time name="diis">    0.20    0.20</time>
   <time name="orth">    0.00    0.00</time>
   <time name="total">    1.75    1.76</time>
   <energy>
    <i name="e_fr_energy">     -6.78769304 </i>
    <i name="e_wo_entrp">     -6.78769304 </i>
    <i name="e_0_energy">     -6.78769304 </i>
   </energy>
  </scstep>
  <scstep>
   <time name="diag">    0.06    0.06</time>
   <time name="diis">    0.18    0.18</time>
   <time name="orth">    0.00    0.00</time>
   <time name="total">    1.72    1.74</time>
   <energy>
    <i name="e_fr_energy">     -6.78770238 </i>
    <i name="e_wo_entrp">     -6.78770238 </i>
    <i name="e_0_energy">     -6.78770238 </i>
   </energy>
  </scstep>
  <scstep>
   <time name="diag">    0.06    0.06</time>
   <time name="diis">    0.18    0.18</time>
   <time name="orth">    0.00    0.00</time>
   <time name="total">    1.75    1.79</time>
   <energy>
    <i name="e_fr_energy">     -6.78770720 </i>
    <i name="e_wo_entrp">     -6.78770720 </i>
    <i name="e_0_energy">     -6.78770720 </i>
   </energy>
  </scstep>
  <scstep>
   <time name="diag">    0.06    0.06</time>
   <time name="diis">    0.18    0.18</time>
   <time name="orth">    0.00    0.00</time>
   <time name="total">    1.77    1.77</time>
   <energy>
    <i name="e_fr_energy">     -6.78770829 </i>
    <i name="e_wo_entrp">     -6.78770829 </i>
    <i name="e_0_energy">     -6.78770829 </i>
   </energy>
  </scstep>
  <scstep>
   <time name="diag">    0.06    0.06</time>
   <time name="diis">    0.17    0.17</time>
   <time name="orth">    0.00    0.00</time>
   <time name="total">    1.58    1.58</time>
   <energy>
    <i name="alphaZ">      0.00122237 </i>
    <i name="ewald">     15.37559231 </i>
    <i name="hartreedc">    -31.62326100 </i>
    <i name="XCdc">      5.35901785 </i>
    <i name="pawpsdc">      8.79785690 </i>
    <i name="pawaedc">     -8.84815883 </i>
    <i name="eentropy">      0.00000000 </i>
    <i name="bandstr">    -20.89304510 </i>
    <i name="atom">     25.04306716 </i>
    <i name="e_fr_energy">     -6.78770835 </i>
    <i name="e_wo_entrp">     -6.78770835 </i>
    <i name="e_0_energy">     -6.78770835 </i>
   </energy>
  </scstep>
  <structure>
   <crystal>
    <varray name="basis" >
     <v>      20.00000000       0.00000000       0.00000000 </v>
     <v>       0.00000000      20.00000000       0.00000000 </v>
     <v>       0.00000000       0.00000000      20.00000000 </v>
    </varray>
    <i name="volume">   8000.00000000 </i>
    <varray name="rec_basis" >
     <v>       0.05000000       0.00000000       0.00000000 </v>
     <v>       0.00000000       0.05000000       0.00000000 </v>
     <v>       0.00000000       0.00000000       0.05000000 </v>
    </varray>
   </crystal>
   <varray name="positions" >
    <v>       0.00000000       0.00000000       0.00000000 </v>
    <v>       0.00000000       0.00000000       0.03700000 </v>
   </varray>
  </structure>
  <varray name="forces" >
   <v>       0.00000000       0.00000000      -0.33559134 </v>
   <v>       0.00000000       0.00000000       0.33559134 </v>
  </varray>
  <energy>
   <i name="e_fr_energy">     -6.78770835 </i>
   <i name="e_wo_entrp">     -6.78770835 </i>
   <i name="e_0_energy">      0.00000000 </i>
  </energy>
  <time name="totalsc">   30.94   31.14</time>
 </calculation>
 <calculation>
  <scstep>
   <time name="dav">    0.32    0.33</time>
   <time name="total">    1.78    1.79</time>
   <energy>
    <i name="alphaZ">      0.00122237 </i>
    <i name="ewald">     14.95906852 </i>
    <i name="hartreedc">    -31.48548095 </i>
    <i name="XCdc">      5.34208087 </i>
    <i name="pawpsdc">      8.79773407 </i>
    <i name="pawaedc">     -8.84803520 </i>
    <i name="eentropy">      0.00000000 </i>
    <i name="bandstr">    -20.59858560 </i>
    <i name="atom">     25.04306716 </i>
    <i name="e_fr_energy">     -6.78892876 </i>
    <i name="e_wo_entrp">     -6.78892876 </i>
    <i name="e_0_energy">     -6.78892876 </i>
   </energy>
  </scstep>
  <scstep>
   <time name="diag">    0.06    0.06</time>
   <time name="diis">    0.20    0.20</time>
   <time name="orth">    0.00    0.00</time>
   <time name="total">    1.75    1.75</time>
   <energy>
    <i name="e_fr_energy">     -6.78863846 </i>
    <i name="e_wo_entrp">     -6.78863846 </i>
    <i name="e_0_energy">     -6.78863846 </i>
   </energy>
  </scstep>
  <scstep>
   <time name="diag">    0.06    0.06</time>
   <time name="diis">    0.20    0.20</time>
   <time name="orth">    0.00    0.00</time>
   <time name="total">    1.75    1.80</time>
   <energy>
    <i name="e_fr_energy">     -6.78851443 </i>
    <i name="e_wo_entrp">     -6.78851443 </i>
    <i name="e_0_energy">     -6.78851443 </i>
   </energy>
  </scstep>
  <scstep>
   <time name="diag">    0.06    0.06</time>
   <time name="diis">    0.20    0.20</time>
   <time name="orth">    0.00    0.00</time>
   <time name="total">    1.74    1.74</time>
   <energy>
    <i name="e_fr_energy">     -6.78852030 </i>
    <i name="e_wo_entrp">     -6.78852030 </i>
    <i name="e_0_energy">     -6.78852030 </i>
   </energy>
  </scstep>
  <scstep>
   <time name="diag">    0.06    0.06</time>
   <time name="diis">    0.18    0.18</time>
   <time name="orth">    0.00    0.00</time>
   <time name="total">    1.56    1.57</time>
   <energy>
    <i name="alphaZ">      0.00122237 </i>
    <i name="ewald">     14.95906852 </i>
    <i name="hartreedc">    -31.32914292 </i>
    <i name="XCdc">      5.32014872 </i>
    <i name="pawpsdc">      8.31604053 </i>
    <i name="pawaedc">     -8.36414399 </i>
    <i name="eentropy">      0.00000000 </i>
    <i name="bandstr">    -20.73478125 </i>
    <i name="atom">     25.04306716 </i>
    <i name="e_fr_energy">     -6.78852085 </i>
    <i name="e_wo_entrp">     -6.78852085 </i>
    <i name="e_0_energy">     -6.78852085 </i>
   </energy>
  </scstep>
  <structure>
   <crystal>
    <varray name="basis" >
     <v>      20.00000000       0.00000000       0.00000000 </v>
     <v>       0.00000000      20.00000000       0.00000000 </v>
     <v>       0.00000000       0.00000000      20.00000000 </v>
    </varray>
    <i name="volume">   8000.00000000 </i>
    <varray name="rec_basis" >
     <v>       0.05000000       0.00000000       0.00000000 </v>
     <v>       0.00000000       0.05000000       0.00000000 </v>
     <v>       0.00000000       0.00000000       0.05000000 </v>
    </varray>
   </crystal>
   <varray name="positions" >
    <v>       0.00000000       0.00000000      -0.00040475 </v>
    <v>       0.00000000       0.00000000       0.03740475 </v>
   </varray>
  </structure>
  <varray name="forces" >
   <v>       0.00000000       0.00000000       0.22341642 </v>
   <v>       0.00000000       0.00000000      -0.22341642 </v>
  </varray>
  <energy>
   <i name="e_fr_energy">     -6.78852085 </i>
   <i name="e_wo_entrp">     -6.78852085 </i>
   <i name="e_0_energy">      0.00000000 </i>
  </energy>
  <time name="totalsc">   10.60   10.74</time>
 </calculation>
 <calculation>
  <scstep>
   <time name="dav">    0.23    0.24</time>
   <time name="total">    1.69    1.70</time>
   <energy>
    <i name="alphaZ">      0.00122237 </i>
    <i name="ewald">     15.12975963 </i>
    <i name="hartreedc">    -31.38453954 </i>
    <i name="XCdc">      5.32701829 </i>
    <i name="pawpsdc">      8.31603606 </i>
    <i name="pawaedc">     -8.36413897 </i>
    <i name="eentropy">      0.00000000 </i>
    <i name="bandstr">    -20.85776096 </i>
    <i name="atom">     25.04306716 </i>
    <i name="e_fr_energy">     -6.78933595 </i>
    <i name="e_wo_entrp">     -6.78933595 </i>
    <i name="e_0_energy">     -6.78933595 </i>
   </energy>
  </scstep>
  <scstep>
   <time name="diag">    0.06    0.06</time>
   <time name="diis">    0.20    0.20</time>
   <time name="orth">    0.00    0.00</time>
   <time name="total">    1.72    1.72</time>
   <energy>
    <i name="e_fr_energy">     -6.78929208 </i>
    <i name="e_wo_entrp">     -6.78929208 </i>
    <i name="e_0_energy">     -6.78929208 </i>
   </energy>
  </scstep>
  <scstep>
   <time name="diag">    0.06    0.06</time>
   <time name="diis">    0.20    0.20</time>
   <time name="orth">    0.00    0.00</time>
   <time name="total">    1.71    1.72</time>
   <energy>
    <i name="e_fr_energy">     -6.78927661 </i>
    <i name="e_wo_entrp">     -6.78927661 </i>
    <i name="e_0_energy">     -6.78927661 </i>
   </energy>
  </scstep>
  <scstep>
   <time name="diag">    0.06    0.06</time>
   <time name="diis">    0.18    0.18</time>
   <time name="orth">    0.00    0.00</time>
   <time name="total">    1.69    1.69</time>
   <energy>
    <i name="e_fr_energy">     -6.78927808 </i>
    <i name="e_wo_entrp">     -6.78927808 </i>
    <i name="e_0_energy">     -6.78927808 </i>
   </energy>
  </scstep>
  <scstep>
   <time name="diag">    0.06    0.06</time>
   <time name="diis">    0.18    0.18</time>
   <time name="orth">    0.00    0.00</time>
   <time name="total">    1.69    1.70</time>
   <energy>
    <i name="e_fr_energy">     -6.78927921 </i>
    <i name="e_wo_entrp">     -6.78927921 </i>
    <i name="e_0_energy">     -6.78927921 </i>
   </energy>
  </scstep>
  <scstep>
   <time name="diag">    0.06    0.06</time>
   <time name="diis">    0.18    0.18</time>
   <time name="orth">    0.00    0.00</time>
   <time name="total">    1.54    1.56</time>
   <energy>
    <i name="alphaZ">      0.00122237 </i>
    <i name="ewald">     15.12975963 </i>
    <i name="hartreedc">    -31.44852294 </i>
    <i name="XCdc">      5.33601307 </i>
    <i name="pawpsdc">      8.51178512 </i>
    <i name="pawaedc">     -8.56078126 </i>
    <i name="eentropy">      0.00000000 </i>
    <i name="bandstr">    -20.80182249 </i>
    <i name="atom">     25.04306716 </i>
    <i name="e_fr_energy">     -6.78927934 </i>
    <i name="e_wo_entrp">     -6.78927934 </i>
    <i name="e_0_energy">     -6.78927934 </i>
   </energy>
  </scstep>
  <structure>
   <crystal>
    <varray name="basis" >
     <v>      20.00000000       0.00000000       0.00000000 </v>
     <v>       0.00000000      20.00000000       0.00000000 </v>
     <v>       0.00000000       0.00000000      20.00000000 </v>
    </varray>
    <i name="volume">   8000.00000000 </i>
    <varray name="rec_basis" >
     <v>       0.05000000       0.00000000       0.00000000 </v>
     <v>       0.00000000       0.05000000       0.00000000 </v>
     <v>       0.00000000       0.00000000       0.05000000 </v>
    </varray>
   </crystal>
   <varray name="positions" >
    <v>       0.00000000       0.00000000      -0.00023676 </v>
    <v>       0.00000000       0.00000000       0.03723676 </v>
   </varray>
  </structure>
  <varray name="forces" >
   <v>       0.00000000       0.00000000      -0.00141500 </v>
   <v>       0.00000000       0.00000000       0.00141500 </v>
  </varray>
  <energy>
   <i name="e_fr_energy">     -6.78927934 </i>
   <i name="e_wo_entrp">     -6.78927934 </i>
   <i name="e_0_energy">      0.00000000 </i>
  </energy>
  <time name="totalsc">   11.93   12.01</time>
  <eigenvalues>
   <array>
    <dimension dim="1">band</dimension>
    <dimension dim="2">kpoint</dimension>
    <dimension dim="3">spin</dimension>
    <field>eigene</field>
    <field>occ</field>
    <set>
     <set comment="spin 1">
      <set comment="kpoint 1">
       <r>  -10.4009    1.0000 </r>
       <r>   -0.0171    0.0000 </r>
       <r>    0.1538    0.0000 </r>
       <r>    0.2963    0.0000 </r>
       <r>    0.3497    0.0000 </r>
      </set>
     </set>
    </set>
   </array>
  </eigenvalues>
  <separator name="orbital magnetization" >
   <v name="MAGDIPOLOUT">      0.00000000      0.00000000      0.00000000</v>
  </separator>
  <dos>
   <i name="efermi">     -9.91325693 </i>
   <total>
    <array>
     <dimension dim="1">gridpoints</dimension>
     <dimension dim="2">spin</dimension>
     <field>energy</field>
     <field>total</field>
     <field>integrated</field>
     <set>
      <set comment="spin 1">
       <r>   -11.4009     0.0000     0.0000 </r>
       <r>   -11.3584     0.0000     0.0000 </r>
       <r>   -11.3159     0.0000     0.0000 </r>
       <r>   -11.2734     0.0000     0.0000 </r>
       <r>   -11.2309     0.0000     0.0000 </r>
       <r>   -11.1884     0.0000     0.0000 </r>
       <r>   -11.1459     0.0000     0.0000 </r>
       <r>   -11.1034     0.0000     0.0000 </r>
       <r>   -11.0609     0.0000     0.0000 </r>
       <r>   -11.0184     0.0000     0.0000 </r>
       <r>   -10.9759     0.0000     0.0000 </r>
       <r>   -10.9334     0.0000     0.0000 </r>
       <r>   -10.8909     0.0000     0.0000 </r>
       <r>   -10.8484     0.0000     0.0000 </r>
       <r>   -10.8059     0.0000     0.0000 </r>
       <r>   -10.7634     0.0000     0.0000 </r>
       <r>   -10.7209     0.0001     0.0000 </r>
       <r>   -10.6784     0.0019     0.0001 </r>
       <r>   -10.6359     0.0189     0.0009 </r>
       <r>   -10.5934     0.1318     0.0065 </r>
       <r>   -10.5509     0.6459     0.0339 </r>
       <r>   -10.5084     2.2269     0.1286 </r>
       <r>   -10.4659     5.4047     0.3583 </r>
       <r>   -10.4234     9.2357     0.7508 </r>
       <r>   -10.3809    11.1146     1.2232 </r>
       <r>   -10.3384     9.4207     1.6236 </r>
       <r>   -10.2959     5.6234     1.8626 </r>
       <r>   -10.2534     2.3635     1.9631 </r>
       <r>   -10.2109     0.6992     1.9928 </r>
       <r>   -10.1684     0.1456     1.9990 </r>
       <r>   -10.1259     0.0213     1.9999 </r>
       <r>   -10.0833     0.0022     2.0000 </r>
       <r>   -10.0408     0.0002     2.0000 </r>
       <r>    -9.9983     0.0000     2.0000 </r>
       <r>    -9.9558     0.0000     2.0000 </r>
       <r>    -9.9133     0.0000     2.0000 </r>
       <r>    -9.8708     0.0000     2.0000 </r>
       <r>    -9.8283     0.0000     2.0000 </r>
       <r>    -9.7858     0.0000     2.0000 </r>
       <r>    -9.7433     0.0000     2.0000 </r>
       <r>    -9.7008     0.0000     2.0000 </r>
       <r>    -9.6583     0.0000     2.0000 </r>
       <r>    -9.6158     0.0000     2.0000 </r>
       <r>    -9.5733     0.0000     2.0000 </r>
       <r>    -9.5308     0.0000     2.0000 </r>
       <r>    -9.4883     0.0000     2.0000 </r>
       <r>    -9.4458     0.0000     2.0000 </r>
       <r>    -9.4033     0.0000     2.0000 </r>
       <r>    -9.3608     0.0000     2.0000 </r>
       <r>    -9.3183     0.0000     2.0000 </r>
       <r>    -9.2758     0.0000     2.0000 </r>
       <r>    -9.2333     0.0000     2.0000 </r>
       <r>    -9.1908     0.0000     2.0000 </r>
       <r>    -9.1483     0.0000     2.0000 </r>
       <r>    -9.1058     0.0000     2.0000 </r>
       <r>    -9.0633     0.0000     2.0000 </r>
       <r>    -9.0208     0.0000     2.0000 </r>
       <r>    -8.9783     0.0000     2.0000 </r>
       <r>    -8.9358     0.0000     2.0000 </r>
       <r>    -8.8933     0.0000     2.0000 </r>
       <r>    -8.8508     0.0000     2.0000 </r>
       <r>    -8.8083     0.0000     2.0000 </r>
       <r>    -8.7658     0.0000     2.0000 </r>
       <r>    -8.7233     0.0000     2.0000 </r>
       <r>    -8.6808     0.0000     2.0000 </r>
       <r>    -8.6383     0.0000     2.0000 </r>
       <r>    -8.5958     0.0000     2.0000 </r>
       <r>    -8.5533     0.0000     2.0000 </r>
       <r>    -8.5108     0.0000     2.0000 </r>
       <r>    -8.4683     0.0000     2.0000 </r>
       <r>    -8.4258     0.0000     2.0000 </r>
       <r>    -8.3833     0.0000     2.0000 </r>
       <r>    -8.3408     0.0000     2.0000 </r>
       <r>    -8.2983     0.0000     2.0000 </r>
       <r>    -8.2558     0.0000     2.0000 </r>
       <r>    -8.2133     0.0000     2.0000 </r>
       <r>    -8.1708     0.0000     2.0000 </r>
       <r>    -8.1283     0.0000     2.0000 </r>
       <r>    -8.0858     0.0000     2.0000 </r>
       <r>    -8.0433     0.0000     2.0000 </r>
       <r>    -8.0007     0.0000     2.0000 </r>
       <r>    -7.9582     0.0000     2.0000 </r>
       <r>    -7.9157     0.0000     2.0000 </r>
       <r>    -7.8732     0.0000     2.0000 </r>
       <r>    -7.8307     0.0000     2.0000 </r>
       <r>    -7.7882     0.0000     2.0000 </r>
       <r>    -7.7457     0.0000     2.0000 </r>
       <r>    -7.7032     0.0000     2.0000 </r>
       <r>    -7.6607     0.0000     2.0000 </r>
       <r>    -7.6182     0.0000     2.0000 </r>
       <r>    -7.5757     0.0000     2.0000 </r>
       <r>    -7.5332     0.0000     2.0000 </r>
       <r>    -7.4907     0.0000     2.0000 </r>
       <r>    -7.4482     0.0000     2.0000 </r>
       <r>    -7.4057     0.0000     2.0000 </r>
       <r>    -7.3632     0.0000     2.0000 </r>
       <r>    -7.3207     0.0000     2.0000 </r>
       <r>    -7.2782     0.0000     2.0000 </r>
       <r>    -7.2357     0.0000     2.0000 </r>
       <r>    -7.1932     0.0000     2.0000 </r>
       <r>    -7.1507     0.0000     2.0000 </r>
       <r>    -7.1082     0.0000     2.0000 </r>
       <r>    -7.0657     0.0000     2.0000 </r>
       <r>    -7.0232     0.0000     2.0000 </r>
       <r>    -6.9807     0.0000     2.0000 </r>
       <r>    -6.9382     0.0000     2.0000 </r>
       <r>    -6.8957     0.0000     2.0000 </r>
       <r>    -6.8532     0.0000     2.0000 </r>
       <r>    -6.8107     0.0000     2.0000 </r>
       <r>    -6.7682     0.0000     2.0000 </r>
       <r>    -6.7257     0.0000     2.0000 </r>
       <r>    -6.6832     0.0000     2.0000 </r>
       <r>    -6.6407     0.0000     2.0000 </r>
       <r>    -6.5982     0.0000     2.0000 </r>
       <r>    -6.5557     0.0000     2.0000 </r>
       <r>    -6.5132     0.0000     2.0000 </r>
       <r>    -6.4707     0.0000     2.0000 </r>
       <r>    -6.4282     0.0000     2.0000 </r>
       <r>    -6.3857     0.0000     2.0000 </r>
       <r>    -6.3432     0.0000     2.0000 </r>
       <r>    -6.3007     0.0000     2.0000 </r>
       <r>    -6.2582     0.0000     2.0000 </r>
       <r>    -6.2157     0.0000     2.0000 </r>
       <r>    -6.1732     0.0000     2.0000 </r>
       <r>    -6.1307     0.0000     2.0000 </r>
       <r>    -6.0882     0.0000     2.0000 </r>
       <r>    -6.0457     0.0000     2.0000 </r>
       <r>    -6.0032     0.0000     2.0000 </r>
       <r>    -5.9607     0.0000     2.0000 </r>
       <r>    -5.9181     0.0000     2.0000 </r>
       <r>    -5.8756     0.0000     2.0000 </r>
       <r>    -5.8331     0.0000     2.0000 </r>
       <r>    -5.7906     0.0000     2.0000 </r>
       <r>    -5.7481     0.0000     2.0000 </r>
       <r>    -5.7056     0.0000     2.0000 </r>
       <r>    -5.6631     0.0000     2.0000 </r>
       <r>    -5.6206     0.0000     2.0000 </r>
       <r>    -5.5781     0.0000     2.0000 </r>
       <r>    -5.5356     0.0000     2.0000 </r>
       <r>    -5.4931     0.0000     2.0000 </r>
       <r>    -5.4506     0.0000     2.0000 </r>
       <r>    -5.4081     0.0000     2.0000 </r>
       <r>    -5.3656     0.0000     2.0000 </r>
       <r>    -5.3231     0.0000     2.0000 </r>
       <r>    -5.2806     0.0000     2.0000 </r>
       <r>    -5.2381     0.0000     2.0000 </r>
       <r>    -5.1956     0.0000     2.0000 </r>
       <r>    -5.1531     0.0000     2.0000 </r>
       <r>    -5.1106     0.0000     2.0000 </r>
       <r>    -5.0681     0.0000     2.0000 </r>
       <r>    -5.0256     0.0000     2.0000 </r>
       <r>    -4.9831     0.0000     2.0000 </r>
       <r>    -4.9406     0.0000     2.0000 </r>
       <r>    -4.8981     0.0000     2.0000 </r>
       <r>    -4.8556     0.0000     2.0000 </r>
       <r>    -4.8131     0.0000     2.0000 </r>
       <r>    -4.7706     0.0000     2.0000 </r>
       <r>    -4.7281     0.0000     2.0000 </r>
       <r>    -4.6856     0.0000     2.0000 </r>
       <r>    -4.6431     0.0000     2.0000 </r>
       <r>    -4.6006     0.0000     2.0000 </r>
       <r>    -4.5581     0.0000     2.0000 </r>
       <r>    -4.5156     0.0000     2.0000 </r>
       <r>    -4.4731     0.0000     2.0000 </r>
       <r>    -4.4306     0.0000     2.0000 </r>
       <r>    -4.3881     0.0000     2.0000 </r>
       <r>    -4.3456     0.0000     2.0000 </r>
       <r>    -4.3031     0.0000     2.0000 </r>
       <r>    -4.2606     0.0000     2.0000 </r>
       <r>    -4.2181     0.0000     2.0000 </r>
       <r>    -4.1756     0.0000     2.0000 </r>
       <r>    -4.1331     0.0000     2.0000 </r>
       <r>    -4.0906     0.0000     2.0000 </r>
       <r>    -4.0481     0.0000     2.0000 </r>
       <r>    -4.0056     0.0000     2.0000 </r>
       <r>    -3.9631     0.0000     2.0000 </r>
       <r>    -3.9206     0.0000     2.0000 </r>
       <r>    -3.8781     0.0000     2.0000 </r>
       <r>    -3.8355     0.0000     2.0000 </r>
       <r>    -3.7930     0.0000     2.0000 </r>
       <r>    -3.7505     0.0000     2.0000 </r>
       <r>    -3.7080     0.0000     2.0000 </r>
       <r>    -3.6655     0.0000     2.0000 </r>
       <r>    -3.6230     0.0000     2.0000 </r>
       <r>    -3.5805     0.0000     2.0000 </r>
       <r>    -3.5380     0.0000     2.0000 </r>
       <r>    -3.4955     0.0000     2.0000 </r>
       <r>    -3.4530     0.0000     2.0000 </r>
       <r>    -3.4105     0.0000     2.0000 </r>
       <r>    -3.3680     0.0000     2.0000 </r>
       <r>    -3.3255     0.0000     2.0000 </r>
       <r>    -3.2830     0.0000     2.0000 </r>
       <r>    -3.2405     0.0000     2.0000 </r>
       <r>    -3.1980     0.0000     2.0000 </r>
       <r>    -3.1555     0.0000     2.0000 </r>
       <r>    -3.1130     0.0000     2.0000 </r>
       <r>    -3.0705     0.0000     2.0000 </r>
       <r>    -3.0280     0.0000     2.0000 </r>
       <r>    -2.9855     0.0000     2.0000 </r>
       <r>    -2.9430     0.0000     2.0000 </r>
       <r>    -2.9005     0.0000     2.0000 </r>
       <r>    -2.8580     0.0000     2.0000 </r>
       <r>    -2.8155     0.0000     2.0000 </r>
       <r>    -2.7730     0.0000     2.0000 </r>
       <r>    -2.7305     0.0000     2.0000 </r>
       <r>    -2.6880     0.0000     2.0000 </r>
       <r>    -2.6455     0.0000     2.0000 </r>
       <r>    -2.6030     0.0000     2.0000 </r>
       <r>    -2.5605     0.0000     2.0000 </r>
       <r>    -2.5180     0.0000     2.0000 </r>
       <r>    -2.4755     0.0000     2.0000 </r>
       <r>    -2.4330     0.0000     2.0000 </r>
       <r>    -2.3905     0.0000     2.0000 </r>
       <r>    -2.3480     0.0000     2.0000 </r>
       <r>    -2.3055     0.0000     2.0000 </r>
       <r>    -2.2630     0.0000     2.0000 </r>
       <r>    -2.2205     0.0000     2.0000 </r>
       <r>    -2.1780     0.0000     2.0000 </r>
       <r>    -2.1355     0.0000     2.0000 </r>
       <r>    -2.0930     0.0000     2.0000 </r>
       <r>    -2.0505     0.0000     2.0000 </r>
       <r>    -2.0080     0.0000     2.0000 </r>
       <r>    -1.9655     0.0000     2.0000 </r>
       <r>    -1.9230     0.0000     2.0000 </r>
       <r>    -1.8805     0.0000     2.0000 </r>
       <r>    -1.8380     0.0000     2.0000 </r>
       <r>    -1.7955     0.0000     2.0000 </r>
       <r>    -1.7529     0.0000     2.0000 </r>
       <r>    -1.7104     0.0000     2.0000 </r>
       <r>    -1.6679     0.0000     2.0000 </r>
       <r>    -1.6254     0.0000     2.0000 </r>
       <r>    -1.5829     0.0000     2.0000 </r>
       <r>    -1.5404     0.0000     2.0000 </r>
       <r>    -1.4979     0.0000     2.0000 </r>
       <r>    -1.4554     0.0000     2.0000 </r>
       <r>    -1.4129     0.0000     2.0000 </r>
       <r>    -1.3704     0.0000     2.0000 </r>
       <r>    -1.3279     0.0000     2.0000 </r>
       <r>    -1.2854     0.0000     2.0000 </r>
       <r>    -1.2429     0.0000     2.0000 </r>
       <r>    -1.2004     0.0000     2.0000 </r>
       <r>    -1.1579     0.0000     2.0000 </r>
       <r>    -1.1154     0.0000     2.0000 </r>
       <r>    -1.0729     0.0000     2.0000 </r>
       <r>    -1.0304     0.0000     2.0000 </r>
       <r>    -0.9879     0.0000     2.0000 </r>
       <r>    -0.9454     0.0000     2.0000 </r>
       <r>    -0.9029     0.0000     2.0000 </r>
       <r>    -0.8604     0.0000     2.0000 </r>
       <r>    -0.8179     0.0000     2.0000 </r>
       <r>    -0.7754     0.0000     2.0000 </r>
       <r>    -0.7329     0.0000     2.0000 </r>
       <r>    -0.6904     0.0000     2.0000 </r>
       <r>    -0.6479     0.0000     2.0000 </r>
       <r>    -0.6054     0.0000     2.0000 </r>
       <r>    -0.5629     0.0000     2.0000 </r>
       <r>    -0.5204     0.0000     2.0000 </r>
       <r>    -0.4779     0.0000     2.0000 </r>
       <r>    -0.4354     0.0000     2.0000 </r>
       <r>    -0.3929     0.0000     2.0000 </r>
       <r>    -0.3504     0.0001     2.0000 </r>
       <r>    -0.3079     0.0009     2.0000 </r>
       <r>    -0.2654     0.0096     2.0004 </r>
       <r>    -0.2229     0.0746     2.0036 </r>
       <r>    -0.1804     0.4081     2.0210 </r>
       <r>    -0.1379     1.5712     2.0877 </r>
       <r>    -0.0954     4.2625     2.2689 </r>
       <r>    -0.0529     8.1825     2.6167 </r>
       <r>    -0.0104    11.2872     3.0964 </r>
       <r>     0.0321    11.8371     3.5995 </r>
       <r>     0.0746    11.0792     4.0704 </r>
       <r>     0.1171    11.4941     4.5589 </r>
       <r>     0.1596    13.0601     5.1140 </r>
       <r>     0.2021    14.3509     5.7239 </r>
       <r>     0.2446    15.9893     6.4035 </r>
       <r>     0.2871    19.0746     7.2142 </r>
       <r>     0.3297    21.4724     8.1268 </r>
       <r>     0.3722    19.6930     8.9638 </r>
       <r>     0.4147    13.7288     9.5473 </r>
       <r>     0.4572     7.0855     9.8485 </r>
       <r>     0.4997     2.6715     9.9620 </r>
       <r>     0.5422     0.7287     9.9930 </r>
       <r>     0.5847     0.1427     9.9991 </r>
       <r>     0.6272     0.0199     9.9999 </r>
       <r>     0.6697     0.0020    10.0000 </r>
       <r>     0.7122     0.0001    10.0000 </r>
       <r>     0.7547     0.0000    10.0000 </r>
       <r>     0.7972     0.0000    10.0000 </r>
       <r>     0.8397     0.0000    10.0000 </r>
       <r>     0.8822     0.0000    10.0000 </r>
       <r>     0.9247     0.0000    10.0000 </r>
       <r>     0.9672     0.0000    10.0000 </r>
       <r>     1.0097     0.0000    10.0000 </r>
       <r>     1.0522     0.0000    10.0000 </r>
       <r>     1.0947     0.0000    10.0000 </r>
       <r>     1.1372     0.0000    10.0000 </r>
       <r>     1.1797     0.0000    10.0000 </r>
       <r>     1.2222     0.0000    10.0000 </r>
       <r>     1.2647     0.0000    10.0000 </r>
       <r>     1.3072     0.0000    10.0000 </r>
       <r>     1.3497     0.0000    10.0000 </r>
      </set>
     </set>
    </array>
   </total>
  </dos>
 </calculation>
 <structure name="finalpos" >
  <crystal>
   <varray name="basis" >
    <v>      20.00000000       0.00000000       0.00000000 </v>
    <v>       0.00000000      20.00000000       0.00000000 </v>
    <v>       0.00000000       0.00000000      20.00000000 </v>
   </varray>
   <i name="volume">   8000.00000000 </i>
   <varray name="rec_basis" >
    <v>       0.05000000       0.00000000       0.00000000 </v>
    <v>       0.00000000       0.05000000       0.00000000 </v>
    <v>       0.00000000       0.00000000       0.05000000 </v>
   </varray>
  </crystal>
  <varray name="positions" >
   <v>       0.00000000       0.00000000      -0.00023676 </v>
   <v>       0.00000000       0.00000000       0.03723676 </v>
  </varray>
 </structure>
</modeling>
