   11   11  200    1
  0.7272727E+03  0.2000000E-08  0.2000000E-08  0.2000000E-08  0.5000000E-15
  1.000000000000000E-004
  CAR 
 unknown system                          
   20    1   16
 
  0.0000000E+00  0.0000000E+00  0.0000000E+00  0.1000000E+01
   1      -19.196248
   2      -16.613742
   3      -14.169084
   4      -11.018477
   5      -10.532278
   6       -9.548055
   7       -9.036231
   8       -8.035381
   9       -7.973490
  10       -7.660301
  11       -0.469672
  12        0.068760
  13        0.077868
  14        0.097689
  15        0.145689
  16        0.337545
