 running on   20 total cores
 distrk:  each k-point on   20 cores,    1 groups
 distr:  one band on   20 cores,    1 groups
 using from now: INCAR     
 vasp.5.3.2 13Sep12 (build Oct  1 2014 14:03:07) gamma-only                     
  
 POSCAR found type information on POSCAR  C  H 
 POSCAR found :  2 types and       6 ions

 ----------------------------------------------------------------------------- 
|                                                                             |
|           W    W    AA    RRRRR   N    N  II  N    N   GGGG   !!!           |
|           W    W   A  A   R    R  NN   N  II  NN   N  G    G  !!!           |
|           W    W  A    A  R    R  N N  N  II  N N  N  G       !!!           |
|           W WW W  AAAAAA  RRRRR   N  N N  II  N  N N  G  GGG   !            |
|           WW  WW  A    A  R   R   N   NN  II  N   NN  G    G                |
|           W    W  A    A  R    R  N    N  II  N    N   GGGG   !!!           |
|                                                                             |
|      For optimal performance we recommend that you set                      |
|        NPAR = 4 - approx SQRT( number of cores)                             |
|      (number of cores/NPAR must be integer)                                 |
|      This setting will greatly improve the performance of VASP for DFT.     |
|      The default NPAR=number of cores might be grossly inefficient          |
|      on modern multi-core architectures or massively parallel machines.     |
|      Do your own testing.                                                   |
|      Unfortunately you need to use the default for hybrid, GW and RPA       |
|      calculations.                                                          |
|                                                                             |
 ----------------------------------------------------------------------------- 


 ----------------------------------------------------------------------------- 
|                                                                             |
|  ADVICE TO THIS USER RUNNING 'VASP/VAMP'   (HEAR YOUR MASTER'S VOICE ...):  |
|                                                                             |
|      You have a (more or less) 'small supercell' and for smaller cells      |
|      it is recommended  to use the reciprocal-space projection scheme!      |
|      The real space optimization is not  efficient for small cells and it   |
|      is also less accurate ...                                              |
|      Therefore set LREAL=.FALSE. in the  INCAR file                         |
|                                                                             |
 ----------------------------------------------------------------------------- 

 LDA part: xc-table for Pade appr. of Perdew
 POSCAR found type information on POSCAR  C  H 
 POSCAR found :  2 types and       6 ions
 POSCAR, INCAR and KPOINTS ok, starting setup
 WARNING: small aliasing (wrap around) errors must be expected
 FFT: planning ...
 WAVECAR not read
 entering main loop
       N       E                     dE             d eps       ncg     rms          rms(c)
DAV:   1     0.429203899692E+02    0.42920E+02   -0.22893E+03    36   0.393E+02
DAV:   2    -0.278451626794E+02   -0.70766E+02   -0.70701E+02    32   0.132E+02
DAV:   3    -0.351864352560E+02   -0.73413E+01   -0.73339E+01    24   0.568E+01
DAV:   4    -0.354199774627E+02   -0.23354E+00   -0.23296E+00    40   0.122E+01
DAV:   5    -0.354195151871E+02    0.46228E-03   -0.11751E-03    30   0.243E-01
DAV:   6    -0.354195154401E+02   -0.25303E-06   -0.25200E-06    22   0.111E-02
DAV:   7    -0.354195154475E+02   -0.73846E-08   -0.82344E-08    30   0.191E-03
DAV:   8    -0.354195154474E+02    0.51728E-10   -0.36657E-10    22   0.113E-04
DAV:   9    -0.354195154481E+02   -0.61618E-09   -0.29061E-11    38   0.149E-05
DAV:  10    -0.354195154481E+02   -0.78444E-10   -0.23377E-11    14   0.164E-07    0.104E+01
RMM:  11    -0.315169581139E+02    0.39026E+01   -0.76385E+00    20   0.161E+01    0.536E+00
RMM:  12    -0.308699083224E+02    0.64705E+00   -0.25354E+00    20   0.891E+00    0.261E+00
RMM:  13    -0.307431898002E+02    0.12672E+00   -0.25795E-01    20   0.329E+00    0.252E-01
RMM:  14    -0.307375412072E+02    0.56486E-02   -0.27552E-02    21   0.877E-01    0.194E-01
RMM:  15    -0.307352008207E+02    0.23404E-02   -0.57129E-03    20   0.451E-01    0.124E-01
RMM:  16    -0.307345799160E+02    0.62090E-03   -0.91209E-04    20   0.205E-01    0.550E-02
RMM:  17    -0.307401698048E+02   -0.55899E-02   -0.20175E-03    20   0.215E-01    0.350E-02
RMM:  18    -0.307408160862E+02   -0.64628E-03   -0.12242E-04    20   0.558E-02    0.256E-02
RMM:  19    -0.307460479737E+02   -0.52319E-02   -0.12400E-03    20   0.175E-01    0.209E-02
RMM:  20    -0.307462966509E+02   -0.24868E-03   -0.95883E-05    21   0.373E-02    0.125E-02
RMM:  21    -0.307470225290E+02   -0.72588E-03   -0.56570E-05    20   0.378E-02    0.552E-03
RMM:  22    -0.307472720785E+02   -0.24955E-03   -0.18824E-05    19   0.200E-02    0.357E-03
RMM:  23    -0.307474988478E+02   -0.22677E-03   -0.18625E-05    18   0.179E-02    0.393E-03
RMM:  24    -0.307476052522E+02   -0.10640E-03   -0.52982E-06    19   0.126E-02    0.241E-03
RMM:  25    -0.307476202806E+02   -0.15028E-04   -0.49686E-07    14   0.407E-03    0.150E-03
RMM:  26    -0.307476430777E+02   -0.22797E-04   -0.68474E-07    14   0.545E-03    0.986E-04
RMM:  27    -0.307476459217E+02   -0.28441E-05   -0.92232E-08    13   0.228E-03    0.252E-04
RMM:  28    -0.307476499090E+02   -0.39873E-05   -0.99379E-08    13   0.203E-03    0.385E-04
RMM:  29    -0.307476504682E+02   -0.55920E-06    0.00000E+00     8   0.938E-04
   1 F= -.30759889E+02 E0= -.30760082E+02  d E =-.307599E+02
 curvature:   0.00 expect dE= 0.000E+00 dE for cont linesearch  0.000E+00
 trial: gam= 0.00000 g(F)=  0.155E+02 g(S)=  0.000E+00 ort = 0.000E+00 (trialstep = 0.100E+01)
 search vector abs. value=  0.155E+02
 bond charge predicted
       N       E                     dE             d eps       ncg     rms          rms(c)
DAV:   1    -0.165386120143E+02    0.14209E+02   -0.10838E+03    20   0.269E+02    0.812E+00
RMM:   2    -0.212967772241E+02   -0.47582E+01   -0.59342E+01    20   0.643E+01    0.656E+00
RMM:   3    -0.211970106751E+02    0.99767E-01   -0.32694E+00    21   0.129E+01    0.587E+00
RMM:   4    -0.208750126078E+02    0.32200E+00   -0.29973E-01    21   0.340E+00    0.458E+00
RMM:   5    -0.206353607087E+02    0.23965E+00   -0.24544E+00    20   0.952E+00    0.168E+00
RMM:   6    -0.206229443093E+02    0.12416E-01   -0.83676E-02    21   0.180E+00    0.117E+00
RMM:   7    -0.205914861906E+02    0.31458E-01   -0.23664E-01    20   0.291E+00    0.586E-01
RMM:   8    -0.205903009349E+02    0.11853E-02   -0.14128E-02    21   0.691E-01    0.293E-01
RMM:   9    -0.205892944338E+02    0.10065E-02   -0.85955E-03    20   0.553E-01    0.723E-02
RMM:  10    -0.205905062934E+02   -0.12119E-02   -0.12756E-03    21   0.200E-01    0.771E-02
RMM:  11    -0.205906524518E+02   -0.14616E-03   -0.39931E-04    20   0.120E-01    0.116E-02
RMM:  12    -0.205914875852E+02   -0.83513E-03   -0.18128E-04    20   0.739E-02    0.200E-02
RMM:  13    -0.205918278003E+02   -0.34022E-03   -0.15333E-04    20   0.682E-02    0.146E-02
RMM:  14    -0.205921229705E+02   -0.29517E-03   -0.64530E-05    20   0.321E-02    0.363E-03
RMM:  15    -0.205921622994E+02   -0.39329E-04   -0.10077E-05    18   0.146E-02    0.218E-03
RMM:  16    -0.205922343163E+02   -0.72017E-04   -0.53436E-06    16   0.911E-03    0.119E-03
RMM:  17    -0.205922453415E+02   -0.11025E-04   -0.51552E-07    14   0.414E-03    0.528E-04
RMM:  18    -0.205922592623E+02   -0.13921E-04   -0.63414E-07    13   0.428E-03    0.879E-04
RMM:  19    -0.205922618696E+02   -0.26073E-05   -0.17633E-07    11   0.242E-03    0.294E-04
RMM:  20    -0.205922651779E+02   -0.33083E-05   -0.24737E-07    13   0.299E-03    0.509E-04
RMM:  21    -0.205922660398E+02   -0.86187E-06   -0.32874E-08     8   0.142E-03
   2 F= -.20615094E+02 E0= -.20615287E+02  d E =0.101448E+02
 trial-energy change:   10.144795  1 .order   -2.858374  -15.528992    9.812244
 step:   0.6128(harm=  0.6128)  dis= 0.39185  next Energy=   -35.517936 (dE=-0.476E+01)
 bond charge predicted
       N       E                     dE             d eps       ncg     rms          rms(c)
DAV:   1    -0.258676124682E+02   -0.52753E+01   -0.23320E+02    20   0.128E+02    0.267E+00
RMM:   2    -0.261765545170E+02   -0.30894E+00   -0.44080E+00    20   0.164E+01    0.177E+00
RMM:   3    -0.261466206274E+02    0.29934E-01   -0.14823E-01    20   0.280E+00    0.119E+00
RMM:   4    -0.261300944320E+02    0.16526E-01   -0.57924E-02    20   0.143E+00    0.698E-01
RMM:   5    -0.261282722583E+02    0.18222E-02   -0.42992E-02    20   0.123E+00    0.217E-01
RMM:   6    -0.261281362912E+02    0.13597E-03   -0.31816E-03    20   0.373E-01    0.799E-02
RMM:   7    -0.261284690353E+02   -0.33274E-03   -0.54249E-04    20   0.161E-01    0.417E-02
RMM:   8    -0.261287183524E+02   -0.24932E-03   -0.39993E-04    20   0.114E-01    0.118E-02
RMM:   9    -0.261290564697E+02   -0.33812E-03   -0.73917E-05    20   0.486E-02    0.160E-02
RMM:  10    -0.261293669857E+02   -0.31052E-03   -0.96348E-05    20   0.570E-02    0.911E-03
RMM:  11    -0.261294952080E+02   -0.12822E-03   -0.32565E-05    20   0.281E-02    0.375E-03
RMM:  12    -0.261296280936E+02   -0.13289E-03   -0.15093E-05    18   0.159E-02    0.332E-03
RMM:  13    -0.261296554480E+02   -0.27354E-04   -0.22220E-06    15   0.740E-03    0.108E-03
RMM:  14    -0.261297044125E+02   -0.48964E-04   -0.39063E-06    16   0.826E-03    0.803E-04
RMM:  15    -0.261297098727E+02   -0.54602E-05   -0.35913E-07    14   0.332E-03    0.774E-04
RMM:  16    -0.261297220183E+02   -0.12146E-04   -0.98154E-07    15   0.421E-03    0.710E-04
RMM:  17    -0.261297242761E+02   -0.22578E-05   -0.14449E-07     9   0.186E-03    0.374E-04
RMM:  18    -0.261297256892E+02   -0.14130E-05   -0.14496E-07    12   0.233E-03    0.158E-04
RMM:  19    -0.261297262612E+02   -0.57203E-06   -0.25573E-08     8   0.127E-03
   3 F= -.26147205E+02 E0= -.26147398E+02  d E =0.461268E+01
 curvature:  -0.31 expect dE=-0.768E+01 dE for cont linesearch -0.527E+01
 ZBRENT: interpolating
 opt :   0.2985  next Energy=   -33.077625 (dE=-0.232E+01)
 bond charge predicted
       N       E                     dE             d eps       ncg     rms          rms(c)
DAV:   1    -0.305116778021E+02   -0.43820E+01   -0.17253E+02    20   0.112E+02    0.273E+00
RMM:   2    -0.306611530156E+02   -0.14948E+00   -0.25265E+00    20   0.133E+01    0.162E+00
RMM:   3    -0.306244614544E+02    0.36692E-01   -0.10541E-01    20   0.265E+00    0.104E+00
RMM:   4    -0.306163625700E+02    0.80989E-02   -0.13727E-01    20   0.217E+00    0.201E-01
RMM:   5    -0.306152804119E+02    0.10822E-02   -0.25542E-03    20   0.399E-01    0.925E-02
RMM:   6    -0.306161919985E+02   -0.91159E-03   -0.51925E-03    20   0.409E-01    0.698E-02
RMM:   7    -0.306155586542E+02    0.63334E-03   -0.15248E-04    20   0.858E-02    0.385E-02
RMM:   8    -0.306158644844E+02   -0.30583E-03   -0.14064E-03    20   0.209E-01    0.481E-02
RMM:   9    -0.306158383870E+02    0.26097E-04   -0.24646E-04    20   0.900E-02    0.110E-02
RMM:  10    -0.306160535837E+02   -0.21520E-03   -0.12580E-04    21   0.643E-02    0.110E-02
RMM:  11    -0.306161148358E+02   -0.61252E-04   -0.87343E-06    19   0.192E-02    0.892E-03
RMM:  12    -0.306161716467E+02   -0.56811E-04   -0.24698E-05    20   0.264E-02    0.214E-03
RMM:  13    -0.306162020788E+02   -0.30432E-04   -0.30112E-06    15   0.883E-03    0.153E-03
RMM:  14    -0.306168017315E+02   -0.59965E-03   -0.12697E-06    15   0.607E-03    0.461E-04
RMM:  15    -0.306168034127E+02   -0.16812E-05   -0.20832E-07    12   0.261E-03    0.570E-04
RMM:  16    -0.306168076788E+02   -0.42661E-05   -0.11586E-07    11   0.219E-03    0.642E-04
RMM:  17    -0.306168080918E+02   -0.41300E-06   -0.91753E-08    12   0.206E-03
   4 F= -.30631030E+02 E0= -.30631030E+02  d E =0.128859E+00
 curvature:  -0.13 expect dE=-0.118E+01 dE for cont linesearch -0.925E+00
 ZBRENT: interpolating
 opt :   0.1793  next Energy=   -31.246656 (dE=-0.487E+00)
 bond charge predicted
       N       E                     dE             d eps       ncg     rms          rms(c)
DAV:   1    -0.315179841779E+02   -0.90118E+00   -0.29130E+01    22   0.490E+01    0.147E+00
RMM:   2    -0.315192567694E+02   -0.12726E-02   -0.32694E-01    20   0.488E+00    0.738E-01
RMM:   3    -0.315094444227E+02    0.98123E-02   -0.46854E-02    20   0.155E+00    0.272E-01
RMM:   4    -0.315094666353E+02   -0.22213E-04   -0.53529E-03    20   0.532E-01    0.933E-02
RMM:   5    -0.315095240483E+02   -0.57413E-04   -0.59030E-04    20   0.183E-01    0.282E-02
RMM:   6    -0.315095785986E+02   -0.54550E-04   -0.68358E-05    20   0.543E-02    0.184E-02
RMM:   7    -0.315096907946E+02   -0.11220E-03   -0.61848E-05    20   0.484E-02    0.956E-03
RMM:   8    -0.315096962055E+02   -0.54109E-05   -0.49113E-06    19   0.143E-02    0.339E-03
RMM:   9    -0.315097857632E+02   -0.89558E-04   -0.12855E-05    19   0.179E-02    0.234E-03
RMM:  10    -0.315098008703E+02   -0.15107E-04   -0.13629E-06    15   0.656E-03    0.840E-04
RMM:  11    -0.315098391928E+02   -0.38322E-04   -0.46859E-06    16   0.887E-03    0.881E-04
RMM:  12    -0.315098440812E+02   -0.48883E-05   -0.51032E-07    14   0.408E-03    0.480E-04
RMM:  13    -0.315098532388E+02   -0.91576E-05   -0.49699E-07    12   0.329E-03    0.242E-04
RMM:  14    -0.315098549611E+02   -0.17223E-05   -0.14086E-07    11   0.218E-03    0.110E-04
RMM:  15    -0.315098565268E+02   -0.15657E-05   -0.44973E-08     9   0.174E-03    0.968E-05
RMM:  16    -0.315098570621E+02   -0.53531E-06    0.00000E+00     8   0.158E-03
   5 F= -.31523164E+02 E0= -.31523357E+02  d E =-.763275E+00
 curvature:  -0.09 expect dE=-0.199E+00 dE for cont linesearch -0.963E-01
 ZBRENT: interpolating
 opt :   0.1175  next Energy=   -31.675494 (dE=-0.916E+00)
 bond charge predicted
       N       E                     dE             d eps       ncg     rms          rms(c)
DAV:   1    -0.316276021560E+02   -0.11775E+00   -0.83828E+00    24   0.263E+01    0.941E-01
RMM:   2    -0.316234665148E+02    0.41356E-02   -0.93039E-02    20   0.263E+00    0.452E-01
RMM:   3    -0.316190477180E+02    0.44188E-02   -0.20525E-02    20   0.981E-01    0.142E-01
RMM:   4    -0.316190212524E+02    0.26466E-04   -0.12617E-03    20   0.275E-01    0.570E-02
RMM:   5    -0.316190055714E+02    0.15681E-04   -0.38421E-04    20   0.124E-01    0.222E-02
RMM:   6    -0.316190278379E+02   -0.22266E-04   -0.13485E-05    20   0.296E-02    0.125E-02
RMM:   7    -0.316190673883E+02   -0.39550E-04   -0.17331E-05    20   0.264E-02    0.399E-03
RMM:   8    -0.316190832869E+02   -0.15899E-04   -0.59465E-06    19   0.135E-02    0.278E-03
RMM:   9    -0.316191186692E+02   -0.35382E-04   -0.40820E-06    16   0.988E-03    0.858E-04
RMM:  10    -0.316191250582E+02   -0.63890E-05   -0.77734E-07    14   0.551E-03    0.122E-03
RMM:  11    -0.316191441200E+02   -0.19062E-04   -0.24296E-06    16   0.648E-03    0.332E-04
RMM:  12    -0.316191466735E+02   -0.25535E-05   -0.20975E-07    12   0.273E-03    0.204E-04
RMM:  13    -0.316191508034E+02   -0.41299E-05   -0.21514E-07    11   0.231E-03    0.172E-04
RMM:  14    -0.316191520077E+02   -0.12043E-05   -0.47402E-08     9   0.172E-03    0.811E-05
RMM:  15    -0.316191527817E+02   -0.77399E-06   -0.24993E-08     9   0.172E-03
   6 F= -.31632048E+02 E0= -.31632241E+02  d E =-.872159E+00
 curvature:  -0.14 expect dE=-0.107E+00 dE for cont linesearch -0.584E-02
 ZBRENT: interpolating
 opt :   0.1276  next Energy=   -31.636092 (dE=-0.876E+00)
 bond charge predicted
       N       E                     dE             d eps       ncg     rms          rms(c)
DAV:   1    -0.316228538120E+02   -0.37018E-02   -0.23098E-01    22   0.439E+00    0.163E-01
RMM:   2    -0.316226647834E+02    0.18903E-03   -0.26067E-03    20   0.442E-01    0.785E-02
RMM:   3    -0.316225577238E+02    0.10706E-03   -0.61393E-04    20   0.170E-01    0.245E-02
RMM:   4    -0.316225566047E+02    0.11191E-05   -0.31234E-05    20   0.440E-02    0.970E-03
RMM:   5    -0.316225563075E+02    0.29720E-06   -0.11936E-05    20   0.215E-02    0.412E-03
RMM:   6    -0.316225569678E+02   -0.66035E-06   -0.35776E-07    14   0.510E-03
   7 F= -.31635516E+02 E0= -.31635710E+02  d E =-.875628E+00
 curvature:  -0.10 expect dE=-0.774E-01 dE for cont linesearch -0.682E-04
 trial: gam= 0.05743 g(F)=  0.788E+00 g(S)=  0.000E+00 ort =-0.104E+00 (trialstep = 0.826E+00)
 search vector abs. value=  0.827E+00
 bond charge predicted
       N       E                     dE             d eps       ncg     rms          rms(c)
DAV:   1    -0.316963131006E+02   -0.73757E-01   -0.37671E+01    24   0.588E+01    0.172E+00
RMM:   2    -0.316998297089E+02   -0.35166E-02   -0.75962E-01    20   0.789E+00    0.101E+00
RMM:   3    -0.316894733643E+02    0.10356E-01   -0.43483E-02    20   0.159E+00    0.509E-01
RMM:   4    -0.316881599284E+02    0.13134E-02   -0.14025E-02    20   0.783E-01    0.126E-01
RMM:   5    -0.316883039812E+02   -0.14405E-03   -0.12824E-03    20   0.255E-01    0.548E-02
RMM:   6    -0.316883042737E+02   -0.29251E-06   -0.12648E-03    20   0.200E-01    0.317E-02
RMM:   7    -0.316883061970E+02   -0.19233E-05   -0.43748E-05    20   0.460E-02    0.151E-02
RMM:   8    -0.316884769089E+02   -0.17071E-03   -0.18115E-04    20   0.736E-02    0.147E-02
RMM:   9    -0.316884887490E+02   -0.11840E-04   -0.14667E-05    20   0.229E-02    0.619E-03
RMM:  10    -0.316886318885E+02   -0.14314E-03   -0.53263E-05    20   0.390E-02    0.705E-03
RMM:  11    -0.316886387955E+02   -0.69070E-05   -0.39841E-06    19   0.123E-02    0.270E-03
RMM:  12    -0.316887031414E+02   -0.64346E-04   -0.11148E-05    19   0.162E-02    0.191E-03
RMM:  13    -0.316887096225E+02   -0.64811E-05   -0.64469E-07    14   0.501E-03    0.171E-03
RMM:  14    -0.316887243896E+02   -0.14767E-04   -0.26175E-06    16   0.856E-03    0.141E-03
RMM:  15    -0.316887286953E+02   -0.43057E-05   -0.37743E-07    14   0.382E-03    0.464E-04
RMM:  16    -0.316887319046E+02   -0.32092E-05   -0.12151E-07    11   0.197E-03    0.332E-04
RMM:  17    -0.316887341718E+02   -0.22673E-05   -0.67459E-08    11   0.179E-03    0.161E-04
RMM:  18    -0.316887350536E+02   -0.88179E-06   -0.79588E-08    12   0.195E-03
   8 F= -.31701427E+02 E0= -.31701620E+02  d E =-.659102E-01
 trial-energy change:   -0.065910  1 .order   -0.049490   -0.645549    0.546570
 step:   0.4638(harm=  0.4470)  dis= 0.04197  next Energy=   -31.819783 (dE=-0.184E+00)
 bond charge predicted
       N       E                     dE             d eps       ncg     rms          rms(c)
DAV:   1    -0.318103603887E+02   -0.12163E+00   -0.73377E+00    24   0.263E+01    0.770E-01
RMM:   2    -0.318072101454E+02    0.31502E-02   -0.12933E-01    20   0.319E+00    0.443E-01
RMM:   3    -0.318059419346E+02    0.12682E-02   -0.97019E-03    20   0.722E-01    0.211E-01
RMM:   4    -0.318058951355E+02    0.46799E-04   -0.14429E-03    20   0.277E-01    0.574E-02
RMM:   5    -0.318059147101E+02   -0.19575E-04   -0.21447E-04    20   0.105E-01    0.168E-02
RMM:   6    -0.318059242207E+02   -0.95106E-05   -0.73044E-05    20   0.519E-02    0.785E-03
RMM:   7    -0.318059413671E+02   -0.17146E-04   -0.95311E-06    19   0.178E-02    0.366E-03
RMM:   8    -0.318059904386E+02   -0.49071E-04   -0.60403E-06    18   0.124E-02    0.162E-03
RMM:   9    -0.318060029849E+02   -0.12546E-04   -0.86933E-07    14   0.564E-03    0.117E-03
RMM:  10    -0.318060431992E+02   -0.40214E-04   -0.53063E-06    18   0.100E-02    0.123E-03
RMM:  11    -0.318060449642E+02   -0.17650E-05   -0.24096E-07    14   0.317E-03    0.540E-04
RMM:  12    -0.318060571598E+02   -0.12196E-04   -0.72450E-07    14   0.417E-03    0.430E-04
RMM:  13    -0.318060580402E+02   -0.88036E-06   -0.11430E-07    11   0.184E-03
   9 F= -.31818798E+02 E0= -.31818991E+02  d E =-.183282E+00
 curvature:  -0.24 expect dE=-0.720E-01 dE for cont linesearch -0.350E-06
 trial: gam= 0.32608 g(F)=  0.305E+00 g(S)=  0.000E+00 ort = 0.111E-02 (trialstep = 0.753E+00)
 search vector abs. value=  0.394E+00
 bond charge predicted
       N       E                     dE             d eps       ncg     rms          rms(c)
DAV:   1    -0.318497020772E+02   -0.43645E-01   -0.93787E+00    20   0.295E+01    0.938E-01
RMM:   2    -0.318503723399E+02   -0.67026E-03   -0.18181E-01    20   0.382E+00    0.610E-01
RMM:   3    -0.318468214933E+02    0.35508E-02   -0.42784E-02    20   0.142E+00    0.171E-01
RMM:   4    -0.318457700875E+02    0.10514E-02   -0.12016E-03    20   0.287E-01    0.931E-02
RMM:   5    -0.318457887061E+02   -0.18619E-04   -0.10543E-03    20   0.196E-01    0.199E-02
RMM:   6    -0.318458069474E+02   -0.18241E-04   -0.34328E-05    20   0.434E-02    0.987E-03
RMM:   7    -0.318458567330E+02   -0.49786E-04   -0.25553E-05    20   0.308E-02    0.331E-03
RMM:   8    -0.318458740315E+02   -0.17299E-04   -0.13050E-06    14   0.853E-03    0.203E-03
RMM:   9    -0.318459234878E+02   -0.49456E-04   -0.67688E-06    18   0.119E-02    0.209E-03
RMM:  10    -0.318459248873E+02   -0.13995E-05   -0.28200E-07    14   0.369E-03    0.130E-03
RMM:  11    -0.318459551438E+02   -0.30257E-04   -0.35299E-06    17   0.860E-03    0.105E-03
RMM:  12    -0.318459589756E+02   -0.38318E-05   -0.27584E-07    14   0.318E-03    0.804E-04
RMM:  13    -0.318459648342E+02   -0.58586E-05   -0.32211E-07    12   0.290E-03    0.225E-04
RMM:  14    -0.318459674978E+02   -0.26636E-05   -0.21690E-07    14   0.269E-03    0.385E-04
RMM:  15    -0.318459684953E+02   -0.99754E-06   -0.25154E-08     9   0.132E-03
  10 F= -.31858286E+02 E0= -.31858479E+02  d E =-.394877E-01
 trial-energy change:   -0.039488  1 .order   -0.039124   -0.229934    0.151687
 step:   0.4538(harm=  0.4538)  dis= 0.03197  next Energy=   -31.888068 (dE=-0.693E-01)
 bond charge predicted
       N       E                     dE             d eps       ncg     rms          rms(c)
DAV:   1    -0.318776471956E+02   -0.31680E-01   -0.15029E+00    24   0.117E+01    0.387E-01
RMM:   2    -0.318763699900E+02    0.12772E-02   -0.26761E-02    20   0.144E+00    0.243E-01
RMM:   3    -0.318758253225E+02    0.54467E-03   -0.64756E-03    20   0.554E-01    0.713E-02
RMM:   4    -0.318757580010E+02    0.67322E-04   -0.20664E-04    20   0.115E-01    0.360E-02
RMM:   5    -0.318757662207E+02   -0.82197E-05   -0.12504E-04    20   0.697E-02    0.788E-03
RMM:   6    -0.318757689778E+02   -0.27570E-05   -0.52315E-06    19   0.165E-02    0.389E-03
RMM:   7    -0.318757784166E+02   -0.94388E-05   -0.47821E-06    19   0.134E-02    0.159E-03
RMM:   8    -0.318757818830E+02   -0.34665E-05   -0.33015E-07    14   0.406E-03    0.861E-04
RMM:   9    -0.318757939192E+02   -0.12036E-04   -0.20811E-06    15   0.696E-03    0.158E-03
RMM:  10    -0.318757944282E+02   -0.50894E-06   -0.17996E-07    14   0.283E-03
  11 F= -.31888263E+02 E0= -.31888457E+02  d E =-.694653E-01
 curvature:  -0.29 expect dE=-0.817E-01 dE for cont linesearch -0.317E-06
 trial: gam= 0.88492 g(F)=  0.279E+00 g(S)=  0.000E+00 ort = 0.653E-03 (trialstep = 0.463E+00)
 search vector abs. value=  0.589E+00
 bond charge predicted
       N       E                     dE             d eps       ncg     rms          rms(c)
DAV:   1    -0.319241498230E+02   -0.48356E-01   -0.41946E+00    24   0.205E+01    0.568E-01
RMM:   2    -0.319256798178E+02   -0.15300E-02   -0.65881E-02    20   0.221E+00    0.370E-01
RMM:   3    -0.319252725932E+02    0.40722E-03   -0.68193E-03    20   0.666E-01    0.111E-01
RMM:   4    -0.319247903402E+02    0.48225E-03   -0.54389E-04    20   0.201E-01    0.296E-02
RMM:   5    -0.319248314685E+02   -0.41128E-04   -0.60512E-05    20   0.581E-02    0.101E-02
RMM:   6    -0.319248721762E+02   -0.40708E-04   -0.20932E-05    20   0.290E-02    0.429E-03
RMM:   7    -0.319249174874E+02   -0.45311E-04   -0.50893E-06    18   0.131E-02    0.176E-03
RMM:   8    -0.319249515604E+02   -0.34073E-04   -0.22828E-06    16   0.847E-03    0.116E-03
RMM:   9    -0.319249922338E+02   -0.40673E-04   -0.40654E-06    17   0.919E-03    0.774E-04
RMM:  10    -0.319250048294E+02   -0.12596E-04   -0.79849E-07    14   0.509E-03    0.617E-04
RMM:  11    -0.319250179582E+02   -0.13129E-04   -0.10502E-06    14   0.465E-03    0.274E-04
RMM:  12    -0.319250208770E+02   -0.29188E-05   -0.23851E-07    12   0.268E-03    0.196E-04
RMM:  13    -0.319250248097E+02   -0.39327E-05   -0.19751E-07    11   0.245E-03    0.189E-04
RMM:  14    -0.319250256910E+02   -0.88130E-06   -0.61486E-08    10   0.184E-03
  12 F= -.31937528E+02 E0= -.31937721E+02  d E =-.492647E-01
 trial-energy change:   -0.049265  1 .order   -0.047952   -0.129766    0.033862
 step:   0.3711(harm=  0.3676)  dis= 0.04381  next Energy=   -31.940891 (dE=-0.526E-01)
 bond charge predicted
       N       E                     dE             d eps       ncg     rms          rms(c)
DAV:   1    -0.319289574937E+02   -0.39327E-02   -0.16666E-01    24   0.410E+00    0.117E-01
RMM:   2    -0.319289961275E+02   -0.38634E-04   -0.26524E-03    20   0.449E-01    0.747E-02
RMM:   3    -0.319283824448E+02    0.61368E-03   -0.26543E-04    20   0.132E-01    0.234E-02
RMM:   4    -0.319283863828E+02   -0.39380E-05   -0.23779E-05    20   0.418E-02    0.590E-03
RMM:   5    -0.319283881164E+02   -0.17336E-05   -0.17540E-06    14   0.112E-02    0.195E-03
RMM:   6    -0.319283908757E+02   -0.27592E-05   -0.12006E-06    14   0.802E-03    0.772E-04
RMM:   7    -0.319283956422E+02   -0.47665E-05   -0.46603E-07    14   0.463E-03    0.370E-04
RMM:   8    -0.319283972074E+02   -0.15652E-05   -0.15295E-07    13   0.275E-03    0.243E-04
RMM:   9    -0.319284014519E+02   -0.42445E-05   -0.37238E-07    14   0.318E-03    0.253E-04
RMM:  10    -0.319284017659E+02   -0.31391E-06   -0.22986E-08     9   0.163E-03
  13 F= -.31940893E+02 E0= -.31941087E+02  d E =-.526302E-01
 curvature:  -0.39 expect dE=-0.423E-01 dE for cont linesearch -0.633E-09
 trial: gam= 0.39267 g(F)=  0.110E+00 g(S)=  0.000E+00 ort =-0.311E-04 (trialstep = 0.445E+00)
 search vector abs. value=  0.200E+00
 bond charge predicted
       N       E                     dE             d eps       ncg     rms          rms(c)
DAV:   1    -0.319468628845E+02   -0.18461E-01   -0.22260E+00    20   0.147E+01    0.327E-01
RMM:   2    -0.319477926444E+02   -0.92976E-03   -0.31573E-02    20   0.167E+00    0.213E-01
RMM:   3    -0.319475345175E+02    0.25813E-03   -0.20103E-03    20   0.334E-01    0.108E-01
RMM:   4    -0.319475676905E+02   -0.33173E-04   -0.34834E-04    20   0.136E-01    0.330E-02
RMM:   5    -0.319475879153E+02   -0.20225E-04   -0.63047E-05    20   0.588E-02    0.101E-02
RMM:   6    -0.319476131612E+02   -0.25246E-04   -0.27164E-05    20   0.304E-02    0.425E-03
RMM:   7    -0.319476308360E+02   -0.17675E-04   -0.17912E-06    14   0.918E-03    0.235E-03
RMM:   8    -0.319476721492E+02   -0.41313E-04   -0.61653E-06    18   0.121E-02    0.173E-03
RMM:   9    -0.319476761668E+02   -0.40175E-05   -0.41944E-07    14   0.443E-03    0.972E-04
RMM:  10    -0.319477089759E+02   -0.32809E-04   -0.44574E-06    17   0.992E-03    0.163E-03
RMM:  11    -0.319477089828E+02   -0.68706E-08   -0.18128E-07    14   0.303E-03
  14 F= -.31960140E+02 E0= -.31960333E+02  d E =-.192463E-01
 trial-energy change:   -0.019246  1 .order   -0.019042   -0.048789    0.010705
 step:   0.3663(harm=  0.3649)  dis= 0.01837  next Energy=   -31.961086 (dE=-0.202E-01)
 bond charge predicted
       N       E                     dE             d eps       ncg     rms          rms(c)
DAV:   1    -0.319492061767E+02   -0.14972E-02   -0.69830E-02    24   0.261E+00    0.575E-02
RMM:   2    -0.319486546172E+02    0.55156E-03   -0.98220E-04    20   0.295E-01    0.378E-02
RMM:   3    -0.319486497223E+02    0.48949E-05   -0.63742E-05    20   0.593E-02    0.192E-02
RMM:   4    -0.319486516837E+02   -0.19613E-05   -0.10002E-05    20   0.237E-02    0.596E-03
RMM:   5    -0.319486522116E+02   -0.52796E-06   -0.17161E-06    14   0.104E-02
  15 F= -.31961092E+02 E0= -.31961285E+02  d E =-.201986E-01
 curvature:  -0.33 expect dE=-0.486E-02 dE for cont linesearch -0.409E-10
 trial: gam= 0.13440 g(F)=  0.146E-01 g(S)=  0.000E+00 ort =-0.496E-05 (trialstep = 0.429E+00)
 search vector abs. value=  0.182E-01
 bond charge predicted
       N       E                     dE             d eps       ncg     rms          rms(c)
DAV:   1    -0.319526336706E+02   -0.39820E-02   -0.14916E-01    24   0.370E+00    0.927E-02
RMM:   2    -0.319527974336E+02   -0.16376E-03   -0.26268E-03    20   0.461E-01    0.679E-02
RMM:   3    -0.319527657184E+02    0.31715E-04   -0.22152E-04    20   0.113E-01    0.165E-02
RMM:   4    -0.319527680077E+02   -0.22893E-05   -0.18144E-05    20   0.330E-02    0.474E-03
RMM:   5    -0.319527684349E+02   -0.42724E-06   -0.20338E-06    14   0.106E-02
  16 F= -.31965219E+02 E0= -.31965412E+02  d E =-.412675E-02
 trial-energy change:   -0.004127  1 .order   -0.004124   -0.006257   -0.001991
 step:   0.6297(harm=  0.6297)  dis= 0.00728  next Energy=   -31.965681 (dE=-0.459E-02)
 bond charge predicted
       N       E                     dE             d eps       ncg     rms          rms(c)
DAV:   1    -0.319532054062E+02   -0.43740E-03   -0.32672E-02    24   0.173E+00    0.433E-02
RMM:   2    -0.319532428277E+02   -0.37422E-04   -0.58821E-04    20   0.218E-01    0.319E-02
RMM:   3    -0.319532362649E+02    0.65628E-05   -0.46065E-05    20   0.519E-02    0.863E-03
RMM:   4    -0.319532377726E+02   -0.15077E-05   -0.44449E-06    18   0.162E-02    0.221E-03
RMM:   5    -0.319532392557E+02   -0.14831E-05   -0.53099E-07    14   0.575E-03    0.624E-04
RMM:   6    -0.319532407278E+02   -0.14721E-05   -0.24112E-07    14   0.351E-03    0.348E-04
RMM:   7    -0.319532432348E+02   -0.25070E-05   -0.12919E-07    12   0.234E-03    0.173E-04
RMM:   8    -0.319532443349E+02   -0.11001E-05   -0.70401E-08    12   0.188E-03    0.115E-04
RMM:   9    -0.319532459482E+02   -0.16133E-05   -0.14036E-07    11   0.199E-03    0.994E-05
RMM:  10    -0.319532463323E+02   -0.38407E-06   -0.21017E-08     9   0.155E-03
  17 F= -.31965702E+02 E0= -.31965895E+02  d E =-.460969E-02
 curvature:  -0.39 expect dE=-0.737E-02 dE for cont linesearch -0.554E-07
 trial: gam= 1.29129 g(F)=  0.187E-01 g(S)=  0.000E+00 ort = 0.506E-04 (trialstep = 0.174E+00)
 search vector abs. value=  0.492E-01
 bond charge predicted
       N       E                     dE             d eps       ncg     rms          rms(c)
DAV:   1    -0.319561651694E+02   -0.29192E-02   -0.30362E-02    24   0.171E+00    0.493E-02
RMM:   2    -0.319561664186E+02   -0.12492E-05   -0.31018E-04    20   0.160E-01    0.303E-02
RMM:   3    -0.319561704641E+02   -0.40455E-05   -0.51123E-05    20   0.499E-02    0.828E-03
RMM:   4    -0.319561700618E+02    0.40233E-06   -0.18318E-06    14   0.119E-02
  18 F= -.31968647E+02 E0= -.31968840E+02  d E =-.294523E-02
 ZBRENT: can't locate minimum, use default step
 trial-energy change:   -0.002945  1 .order   -0.002948   -0.003264   -0.002632
 step:   0.6940(harm=  0.8958)  dis= 0.01358  next Energy=   -31.974129 (dE=-0.843E-02)
 bond charge predicted
       N       E                     dE             d eps       ncg     rms          rms(c)
DAV:   1    -0.319611348329E+02   -0.49644E-02   -0.27292E-01    22   0.513E+00    0.148E-01
RMM:   2    -0.319611586687E+02   -0.23836E-04   -0.27488E-03    20   0.477E-01    0.907E-02
RMM:   3    -0.319611898385E+02   -0.31170E-04   -0.45949E-04    20   0.149E-01    0.250E-02
RMM:   4    -0.319611897317E+02    0.10682E-06   -0.20038E-05    20   0.356E-02    0.104E-02
RMM:   5    -0.319611952216E+02   -0.54899E-05   -0.95415E-06    20   0.191E-02    0.235E-03
RMM:   6    -0.319612002584E+02   -0.50368E-05   -0.73881E-07    14   0.600E-03    0.131E-03
RMM:   7    -0.319612098168E+02   -0.95584E-05   -0.10722E-06    14   0.567E-03    0.579E-04
RMM:   8    -0.319612148924E+02   -0.50756E-05   -0.40990E-07    14   0.329E-03    0.312E-04
RMM:   9    -0.319612212313E+02   -0.63389E-05   -0.57038E-07    12   0.341E-03    0.222E-04
RMM:  10    -0.319612228218E+02   -0.15905E-05   -0.14152E-07    12   0.214E-03    0.101E-04
RMM:  11    -0.319612252445E+02   -0.24227E-05   -0.21544E-07    13   0.223E-03    0.115E-04
RMM:  12    -0.319612258590E+02   -0.61443E-06   -0.29700E-08     9   0.130E-03
  19 F= -.31973766E+02 E0= -.31973959E+02  d E =-.806408E-02
 curvature:  -1.08 expect dE=-0.184E-01 dE for cont linesearch -0.445E-03
 ZBRENT: extrapolating
 opt :   0.9137  next Energy=   -31.974261 (dE=-0.856E-02)
 bond charge predicted
       N       E                     dE             d eps       ncg     rms          rms(c)
DAV:   1    -0.319622654001E+02   -0.10402E-02   -0.48538E-02    24   0.216E+00    0.623E-02
RMM:   2    -0.319616876591E+02    0.57774E-03   -0.48282E-04    20   0.200E-01    0.381E-02
RMM:   3    -0.319616935734E+02   -0.59144E-05   -0.82803E-05    20   0.629E-02    0.104E-02
RMM:   4    -0.319616930353E+02    0.53809E-06   -0.32573E-06    17   0.149E-02
  20 F= -.31974259E+02 E0= -.31974452E+02  d E =-.855704E-02
 curvature:  -1.20 expect dE=-0.326E-01 dE for cont linesearch -0.861E-08
 trial: gam= 1.42531 g(F)=  0.271E-01 g(S)=  0.000E+00 ort = 0.188E-04 (trialstep = 0.124E+00)
 search vector abs. value=  0.127E+00
 bond charge predicted
       N       E                     dE             d eps       ncg     rms          rms(c)
DAV:   1    -0.319643233638E+02   -0.26298E-02   -0.58285E-02    24   0.228E+00    0.691E-02
RMM:   2    -0.319643505217E+02   -0.27158E-04   -0.91937E-04    20   0.264E-01    0.449E-02
RMM:   3    -0.319643482535E+02    0.22682E-05   -0.17888E-04    20   0.967E-02    0.853E-03
RMM:   4    -0.319643468571E+02    0.13964E-05   -0.44946E-06    18   0.184E-02    0.516E-03
RMM:   5    -0.319643480666E+02   -0.12095E-05   -0.13143E-05    19   0.201E-02    0.284E-03
RMM:   6    -0.319643484258E+02   -0.35915E-06   -0.15609E-06    14   0.811E-03
  21 F= -.31976901E+02 E0= -.31977094E+02  d E =-.264229E-02
 trial-energy change:   -0.002642  1 .order   -0.002642   -0.003381   -0.001903
 step:   0.2846(harm=  0.2846)  dis= 0.00872  next Energy=   -31.978125 (dE=-0.387E-02)
 bond charge predicted
       N       E                     dE             d eps       ncg     rms          rms(c)
DAV:   1    -0.319655493739E+02   -0.12013E-02   -0.97044E-02    24   0.294E+00    0.894E-02
RMM:   2    -0.319655901699E+02   -0.40796E-04   -0.14838E-03    20   0.337E-01    0.576E-02
RMM:   3    -0.319655831316E+02    0.70383E-05   -0.29852E-04    20   0.125E-01    0.106E-02
RMM:   4    -0.319655802020E+02    0.29297E-05   -0.71361E-06    19   0.231E-02    0.651E-03
RMM:   5    -0.319655806328E+02   -0.43088E-06   -0.22839E-05    20   0.264E-02    0.371E-03
RMM:   6    -0.319655808018E+02   -0.16893E-06   -0.16807E-06    14   0.842E-03
  22 F= -.31978116E+02 E0= -.31978309E+02  d E =-.385711E-02
 curvature:  -0.67 expect dE=-0.542E-02 dE for cont linesearch -0.102E-06
 trial: gam= 0.29882 g(F)=  0.813E-02 g(S)=  0.000E+00 ort =-0.139E-03 (trialstep = 0.156E+00)
 search vector abs. value=  0.194E-01
 bond charge predicted
       N       E                     dE             d eps       ncg     rms          rms(c)
DAV:   1    -0.319667207397E+02   -0.11401E-02   -0.13685E-02    24   0.113E+00    0.346E-02
RMM:   2    -0.319667188317E+02    0.19080E-05   -0.17442E-04    20   0.126E-01    0.203E-02
RMM:   3    -0.319667197942E+02   -0.96246E-06   -0.20995E-05    20   0.305E-02    0.782E-03
RMM:   4    -0.319667208664E+02   -0.10722E-05   -0.14691E-06    14   0.974E-03    0.251E-03
RMM:   5    -0.319667216689E+02   -0.80251E-06   -0.39164E-07    14   0.558E-03
  23 F= -.31979245E+02 E0= -.31979438E+02  d E =-.112898E-02
 trial-energy change:   -0.001129  1 .order   -0.001124   -0.001266   -0.000983
 step:   0.5557(harm=  0.7000)  dis= 0.00806  next Energy=   -31.980578 (dE=-0.246E-02)
 bond charge predicted
       N       E                     dE             d eps       ncg     rms          rms(c)
DAV:   1    -0.319683627579E+02   -0.16419E-02   -0.89538E-02    24   0.290E+00    0.897E-02
RMM:   2    -0.319683309262E+02    0.31832E-04   -0.11340E-03    20   0.318E-01    0.524E-02
RMM:   3    -0.319683304736E+02    0.45264E-06   -0.15729E-04    20   0.815E-02    0.199E-02
RMM:   4    -0.319683332121E+02   -0.27385E-05   -0.11607E-05    20   0.248E-02    0.681E-03
RMM:   5    -0.319683346553E+02   -0.14432E-05   -0.13404E-06    14   0.951E-03    0.184E-03
RMM:   6    -0.319683358026E+02   -0.11473E-05   -0.69638E-07    14   0.596E-03    0.619E-04
RMM:   7    -0.319683371706E+02   -0.13680E-05   -0.22942E-07    14   0.354E-03    0.419E-04
RMM:   8    -0.319683384953E+02   -0.13247E-05   -0.58411E-08    11   0.202E-03    0.111E-04
RMM:   9    -0.319683392478E+02   -0.75252E-06   -0.45509E-08     9   0.175E-03
  24 F= -.31980832E+02 E0= -.31981025E+02  d E =-.271572E-02
 curvature:  -0.78 expect dE=-0.170E-02 dE for cont linesearch -0.109E-03
 ZBRENT: extrapolating
 opt :   0.6972  next Energy=   -31.980948 (dE=-0.283E-02)
 bond charge predicted
       N       E                     dE             d eps       ncg     rms          rms(c)
DAV:   1    -0.319684701130E+02   -0.13162E-03   -0.11261E-02    24   0.103E+00    0.319E-02
RMM:   2    -0.319684670775E+02    0.30355E-05   -0.14523E-04    20   0.116E-01    0.187E-02
RMM:   3    -0.319684669920E+02    0.85546E-07   -0.19141E-05    20   0.288E-02    0.717E-03
RMM:   4    -0.319684673795E+02   -0.38754E-06   -0.12337E-06    14   0.904E-03
  25 F= -.31980949E+02 E0= -.31981142E+02  d E =-.283273E-02
 curvature:  -0.84 expect dE=-0.239E-02 dE for cont linesearch -0.879E-09
 trial: gam= 0.33631 g(F)=  0.286E-02 g(S)=  0.000E+00 ort =-0.452E-05 (trialstep = 0.265E+00)
 search vector abs. value=  0.505E-02
 bond charge predicted
       N       E                     dE             d eps       ncg     rms          rms(c)
DAV:   1    -0.319690370956E+02   -0.57010E-03   -0.11586E-02    24   0.106E+00    0.305E-02
RMM:   2    -0.319690392390E+02   -0.21434E-05   -0.18830E-04    20   0.124E-01    0.194E-02
RMM:   3    -0.319690384107E+02    0.82833E-06   -0.16924E-05    20   0.302E-02    0.740E-03
RMM:   4    -0.319690386368E+02   -0.22611E-06   -0.13042E-06    14   0.952E-03
  26 F= -.31981515E+02 E0= -.31981708E+02  d E =-.566009E-03
 trial-energy change:   -0.000566  1 .order   -0.000567   -0.000757   -0.000378
 step:   0.5290(harm=  0.5290)  dis= 0.00263  next Energy=   -31.981705 (dE=-0.756E-03)
 bond charge predicted
       N       E                     dE             d eps       ncg     rms          rms(c)
DAV:   1    -0.319692278211E+02   -0.18941E-03   -0.11539E-02    24   0.105E+00    0.307E-02
RMM:   2    -0.319692301565E+02   -0.23354E-05   -0.18896E-04    20   0.124E-01    0.194E-02
RMM:   3    -0.319692293488E+02    0.80774E-06   -0.16580E-05    20   0.299E-02    0.754E-03
RMM:   4    -0.319692295403E+02   -0.19154E-06   -0.12717E-06    14   0.961E-03
  27 F= -.31981700E+02 E0= -.31981894E+02  d E =-.751598E-03
 curvature:  -0.47 expect dE=-0.870E-03 dE for cont linesearch -0.364E-08
 trial: gam= 0.65871 g(F)=  0.186E-02 g(S)=  0.000E+00 ort =-0.628E-05 (trialstep = 0.317E+00)
 search vector abs. value=  0.405E-02
 bond charge predicted
       N       E                     dE             d eps       ncg     rms          rms(c)
DAV:   1    -0.319696009180E+02   -0.37157E-03   -0.13976E-02    24   0.117E+00    0.334E-02
RMM:   2    -0.319696002129E+02    0.70510E-06   -0.20531E-04    20   0.130E-01    0.210E-02
RMM:   3    -0.319695993884E+02    0.82457E-06   -0.22598E-05    20   0.341E-02    0.887E-03
RMM:   4    -0.319695999261E+02   -0.53777E-06   -0.15703E-06    14   0.105E-02
  28 F= -.31982065E+02 E0= -.31982258E+02  d E =-.364902E-03
 trial-energy change:   -0.000365  1 .order   -0.000365   -0.000590   -0.000139
 step:   0.4158(harm=  0.4158)  dis= 0.00289  next Energy=   -31.982087 (dE=-0.386E-03)
 bond charge predicted
       N       E                     dE             d eps       ncg     rms          rms(c)
DAV:   1    -0.319696230745E+02   -0.23686E-04   -0.13185E-03    24   0.360E-01    0.102E-02
RMM:   2    -0.319696234487E+02   -0.37419E-06   -0.18682E-05    20   0.394E-02    0.637E-03
RMM:   3    -0.319696239255E+02   -0.47681E-06   -0.16058E-06    14   0.993E-03
  29 F= -.31982087E+02 E0= -.31982281E+02  d E =-.387164E-03
 curvature:  -0.45 expect dE=-0.617E-03 dE for cont linesearch -0.553E-08
 trial: gam= 0.73036 g(F)=  0.136E-02 g(S)=  0.000E+00 ort =-0.703E-05 (trialstep = 0.337E+00)
 search vector abs. value=  0.351E-02
 bond charge predicted
       N       E                     dE             d eps       ncg     rms          rms(c)
DAV:   1    -0.319699137786E+02   -0.29033E-03   -0.15679E-02    24   0.119E+00    0.330E-02
RMM:   2    -0.319699151801E+02   -0.14015E-05   -0.21726E-04    20   0.131E-01    0.214E-02
RMM:   3    -0.319699132576E+02    0.19225E-05   -0.47408E-05    20   0.456E-02    0.657E-03
RMM:   4    -0.319699133536E+02   -0.95953E-07   -0.99287E-07    14   0.911E-03
  30 F= -.31982395E+02 E0= -.31982588E+02  d E =-.307098E-03
 trial-energy change:   -0.000307  1 .order   -0.000306   -0.000458   -0.000154
 step:   0.5075(harm=  0.5075)  dis= 0.00399  next Energy=   -31.982432 (dE=-0.345E-03)
 bond charge predicted
       N       E                     dE             d eps       ncg     rms          rms(c)
DAV:   1    -0.319699458952E+02   -0.32638E-04   -0.40324E-03    24   0.603E-01    0.170E-02
RMM:   2    -0.319699455290E+02    0.36621E-06   -0.57975E-05    20   0.675E-02    0.109E-02
RMM:   3    -0.319699450056E+02    0.52337E-06   -0.14088E-05    20   0.245E-02    0.362E-03
RMM:   4    -0.319699452290E+02   -0.22338E-06   -0.29419E-07    14   0.486E-03
  31 F= -.31982435E+02 E0= -.31982629E+02  d E =-.347807E-03
 curvature:  -0.66 expect dE=-0.807E-03 dE for cont linesearch -0.671E-08
 trial: gam= 0.90141 g(F)=  0.123E-02 g(S)=  0.000E+00 ort = 0.599E-05 (trialstep = 0.318E+00)
 search vector abs. value=  0.409E-02
 bond charge predicted
       N       E                     dE             d eps       ncg     rms          rms(c)
DAV:   1    -0.319702009723E+02   -0.25597E-03   -0.11067E-02    24   0.102E+00    0.302E-02
RMM:   2    -0.319701982979E+02    0.26744E-05   -0.12432E-04    20   0.103E-01    0.182E-02
RMM:   3    -0.319701983118E+02   -0.13878E-07   -0.20046E-05    20   0.288E-02    0.629E-03
RMM:   4    -0.319701985517E+02   -0.23988E-06   -0.90673E-07    14   0.799E-03
  32 F= -.31982702E+02 E0= -.31982895E+02  d E =-.266886E-03
 trial-energy change:   -0.000267  1 .order   -0.000267   -0.000393   -0.000141
 step:   0.4971(harm=  0.4971)  dis= 0.00456  next Energy=   -31.982742 (dE=-0.307E-03)
 bond charge predicted
       N       E                     dE             d eps       ncg     rms          rms(c)
DAV:   1    -0.319702305042E+02   -0.32192E-04   -0.34689E-03    24   0.573E-01    0.168E-02
RMM:   2    -0.319702298960E+02    0.60820E-06   -0.38490E-05    20   0.576E-02    0.102E-02
RMM:   3    -0.319702301085E+02   -0.21247E-06   -0.52247E-06    20   0.151E-02
  33 F= -.31982741E+02 E0= -.31982934E+02  d E =-.305894E-03
 curvature:  -0.82 expect dE=-0.180E-03 dE for cont linesearch -0.617E-08
 trial: gam= 0.19524 g(F)=  0.219E-03 g(S)=  0.000E+00 ort =-0.554E-05 (trialstep = 0.354E+00)
 search vector abs. value=  0.373E-03
 bond charge predicted
       N       E                     dE             d eps       ncg     rms          rms(c)
DAV:   1    -0.319702794106E+02   -0.49515E-04   -0.14878E-03    24   0.374E-01    0.108E-02
RMM:   2    -0.319702811221E+02   -0.17115E-05   -0.28876E-05    20   0.457E-02    0.751E-03
RMM:   3    -0.319702813716E+02   -0.24951E-06   -0.28528E-06    16   0.131E-02
  34 F= -.31982794E+02 E0= -.31982987E+02  d E =-.526322E-04
 trial-energy change:   -0.000053  1 .order   -0.000052   -0.000077   -0.000026
 step:   0.5381(harm=  0.5381)  dis= 0.00094  next Energy=   -31.982800 (dE=-0.586E-04)
 bond charge predicted
       N       E                     dE             d eps       ncg     rms          rms(c)
DAV:   1    -0.319702872112E+02   -0.60892E-05   -0.39511E-04    24   0.193E-01    0.550E-03
RMM:   2    -0.319702878889E+02   -0.67768E-06   -0.75505E-06    18   0.236E-02
  35 F= -.31982801E+02 E0= -.31982994E+02  d E =-.598509E-04
 curvature:  -0.46 expect dE=-0.724E-04 dE for cont linesearch -0.982E-09
 trial: gam= 0.71291 g(F)=  0.157E-03 g(S)=  0.000E+00 ort =-0.892E-06 (trialstep = 0.391E+00)
 search vector abs. value=  0.345E-03
 bond charge predicted
       N       E                     dE             d eps       ncg     rms          rms(c)
DAV:   1    -0.319703297230E+02   -0.42512E-04   -0.21378E-03    24   0.456E-01    0.108E-02
RMM:   2    -0.319703306568E+02   -0.93382E-06   -0.23194E-05    20   0.448E-02    0.695E-03
RMM:   3    -0.319703309088E+02   -0.25198E-06   -0.19924E-06    14   0.116E-02
  36 F= -.31982845E+02 E0= -.31983038E+02  d E =-.441391E-04
 trial-energy change:   -0.000044  1 .order   -0.000043   -0.000061   -0.000025
 step:   0.6701(harm=  0.6701)  dis= 0.00123  next Energy=   -31.982853 (dE=-0.524E-04)
 bond charge predicted
       N       E                     dE             d eps       ncg     rms          rms(c)
DAV:   1    -0.319703383091E+02   -0.76522E-05   -0.10778E-03    24   0.324E-01    0.766E-03
RMM:   2    -0.319703388220E+02   -0.51291E-06   -0.11491E-05    20   0.315E-02    0.498E-03
RMM:   3    -0.319703390718E+02   -0.24979E-06   -0.93605E-07    14   0.802E-03
  37 F= -.31982854E+02 E0= -.31983047E+02  d E =-.530990E-04
 curvature:  -0.74 expect dE=-0.884E-04 dE for cont linesearch -0.179E-07
 trial: gam= 0.77587 g(F)=  0.120E-03 g(S)=  0.000E+00 ort =-0.289E-05 (trialstep = 0.447E+00)
 search vector abs. value=  0.323E-03
 bond charge predicted
       N       E                     dE             d eps       ncg     rms          rms(c)
DAV:   1    -0.319703482411E+02   -0.94191E-05   -0.32293E-03    24   0.556E-01    0.145E-02
RMM:   2    -0.319703492873E+02   -0.10463E-05   -0.46034E-05    20   0.597E-02    0.954E-03
RMM:   3    -0.319703488975E+02    0.38980E-06   -0.84887E-06    20   0.205E-02
  38 F= -.31982859E+02 E0= -.31983052E+02  d E =-.455852E-05
 trial-energy change:   -0.000005  1 .order   -0.000004   -0.000052    0.000044
 step:   0.2420(harm=  0.2420)  dis= 0.00038  next Energy=   -31.982868 (dE=-0.142E-04)
 bond charge predicted
       N       E                     dE             d eps       ncg     rms          rms(c)
DAV:   1    -0.319703570425E+02   -0.77552E-05   -0.68350E-04    24   0.255E-01    0.630E-03
RMM:   2    -0.319703572218E+02   -0.17933E-06   -0.96808E-06    19   0.272E-02
  39 F= -.31982869E+02 E0= -.31983063E+02  d E =-.152977E-04
 curvature:  -0.33 expect dE=-0.995E-05 dE for cont linesearch -0.178E-07
 trial: gam= 0.27252 g(F)=  0.299E-04 g(S)=  0.000E+00 ort =-0.416E-05 (trialstep = 0.406E+00)
 search vector abs. value=  0.516E-04
 bond charge predicted
       N       E                     dE             d eps       ncg     rms          rms(c)
DAV:   1    -0.319703647843E+02   -0.77419E-05   -0.22891E-04    24   0.145E-01    0.510E-03
RMM:   2    -0.319703647778E+02    0.65094E-08   -0.46791E-06    18   0.207E-02
  40 F= -.31982877E+02 E0= -.31983071E+02  d E =-.785393E-05
 trial-energy change:   -0.000008  1 .order   -0.000008   -0.000012   -0.000004
 step:   0.6299(harm=  0.6299)  dis= 0.00050  next Energy=   -31.982878 (dE=-0.905E-05)
 reached required accuracy - stopping structural energy minimisation
