    6    6  200    1
  0.1333333E+04  0.2000000E-08  0.2000000E-08  0.2000000E-08  0.5000000E-15
  1.000000000000000E-004
  CAR 
 unknown system                          
   12    1   10
 
  0.0000000E+00  0.0000000E+00  0.0000000E+00  0.1000000E+01
   1      -18.766333
   2      -14.190137
   3      -11.407508
   4      -10.152515
   5       -8.465430
   6       -6.747828
   7       -1.076202
   8       -0.322189
   9        0.129540
  10        0.174799
