<?xml version="1.0" encoding="ISO-8859-1"?>
<modeling>
 <generator>
  <i name="program" type="string">vasp </i>
  <i name="version" type="string">5.3.2  </i>
  <i name="subversion" type="string">13Sep12 (build Oct  1 2014 13:46:58) complex                          parallel </i>
  <i name="platform" type="string">LinuxIFC </i>
  <i name="date" type="string">2015 11 22 </i>
  <i name="time" type="string">18:50:12 </i>
 </generator>
 <incar>
  <i type="int" name="ISTART">     0</i>
  <i type="string" name="PREC">med</i>
  <i type="string" name="ALGO"> Fast</i>
  <i type="int" name="ISPIN">     1</i>
  <i type="int" name="NELM">   400</i>
  <i type="int" name="NELMDL">   -10</i>
  <i type="int" name="IBRION">     2</i>
  <i type="int" name="NFREE">     2</i>
  <i name="EDIFF">      0.00000100</i>
  <i name="EDIFFG">     -0.01000000</i>
  <i type="int" name="NSW">   200</i>
  <i type="int" name="ISIF">     2</i>
  <i type="int" name="ISYM">     0</i>
  <i name="ENCUT">    400.00000000</i>
  <i name="POTIM">      0.50000000</i>
  <i type="string" name="LREAL"> auto</i>
  <v name="ROPT">     -0.00020000     -0.00020000</v>
  <i type="logical" name="LPLANE"> T  </i>
  <i type="int" name="ISMEAR">     1</i>
  <i name="SIGMA">      0.01000000</i>
  <i type="int" name="NWRITE">     1</i>
  <i type="logical" name="LWAVE"> F  </i>
  <i type="logical" name="LCHARG"> F  </i>
  <i type="logical" name="LVTOT"> F  </i>
  <i type="int" name="NELM">   400</i>
  <i type="int" name="VOSKOWN">     1</i>
 </incar>
 <kpoints>
  <generation param="Monkhorst-Pack">
   <v type="int" name="divisions">       1        1        1 </v>
   <v name="usershift">      0.00000000       0.00000000       0.00000000 </v>
   <v name="genvec1">      1.00000000       0.00000000       0.00000000 </v>
   <v name="genvec2">      0.00000000       1.00000000       0.00000000 </v>
   <v name="genvec3">      0.00000000       0.00000000       1.00000000 </v>
   <v name="shift">      0.00000000       0.00000000       0.00000000 </v>
  </generation>
  <varray name="kpointlist" >
   <v>       0.00000000       0.00000000       0.00000000 </v>
  </varray>
  <varray name="weights" >
   <v>       1.00000000 </v>
  </varray>
 </kpoints>
 <parameters>
  <separator name="general" >
   <i type="string" name="SYSTEM">unknown system</i>
   <i type="logical" name="LCOMPAT"> F  </i>
  </separator>
  <separator name="electronic" >
   <i type="string" name="PREC">med</i>
   <i name="ENMAX">    400.00000000</i>
   <i name="ENAUG">    644.87300000</i>
   <i name="EDIFF">      0.00000100</i>
   <i type="int" name="IALGO">    68</i>
   <i type="int" name="IWAVPR">    11</i>
   <i type="int" name="NBANDS">    10</i>
   <i name="NELECT">     12.00000000</i>
   <i type="int" name="TURBO">     0</i>
   <i type="int" name="IRESTART">     0</i>
   <i type="int" name="NREBOOT">     0</i>
   <i type="int" name="NMIN">     0</i>
   <i name="EREF">      0.00000000</i>
   <separator name="electronic smearing" >
    <i type="int" name="ISMEAR">     1</i>
    <i name="SIGMA">      0.01000000</i>
    <i name="KSPACING">      0.50000000</i>
    <i type="logical" name="KGAMMA"> T  </i>
   </separator>
   <separator name="electronic projectors" >
    <i type="logical" name="LREAL"> T  </i>
    <v name="ROPT">     -0.00020000     -0.00020000</v>
    <i type="int" name="LMAXPAW">  -100</i>
    <i type="int" name="LMAXMIX">     2</i>
    <i type="logical" name="NLSPLINE"> F  </i>
   </separator>
   <separator name="electronic startup" >
    <i type="int" name="ISTART">     0</i>
    <i type="int" name="ICHARG">     2</i>
    <i type="int" name="INIWAV">     1</i>
   </separator>
   <separator name="electronic spin" >
    <i type="int" name="ISPIN">     1</i>
    <i type="logical" name="LNONCOLLINEAR"> F  </i>
    <v name="MAGMOM">      1.00000000      1.00000000      1.00000000      1.00000000      1.00000000      1.00000000</v>
    <i name="NUPDOWN">     -1.00000000</i>
    <i type="logical" name="LSORBIT"> F  </i>
    <v name="SAXIS">      0.00000000      0.00000000      1.00000000</v>
    <i type="logical" name="LSPIRAL"> F  </i>
    <v name="QSPIRAL">      0.00000000      0.00000000      0.00000000</v>
    <i type="logical" name="LZEROZ"> F  </i>
   </separator>
   <separator name="electronic exchange-correlation" >
    <i type="logical" name="LASPH"> F  </i>
    <i type="logical" name="LMETAGGA"> F  </i>
   </separator>
   <separator name="electronic convergence" >
    <i type="int" name="NELM">   400</i>
    <i type="int" name="NELMDL">   -10</i>
    <i type="int" name="NELMIN">     2</i>
    <i name="ENINI">    400.00000000</i>
    <separator name="electronic convergence detail" >
     <i type="logical" name="LDIAG"> T  </i>
     <i type="logical" name="LSUBROT"> T  </i>
     <i name="WEIMIN">      0.00100000</i>
     <i name="EBREAK">      0.00000002</i>
     <i name="DEPER">      0.30000000</i>
     <i type="int" name="NRMM">     4</i>
     <i name="TIME">      0.40000000</i>
    </separator>
   </separator>
   <separator name="electronic mixer" >
    <i name="AMIX">      0.40000000</i>
    <i name="BMIX">      1.00000000</i>
    <i name="AMIN">      0.10000000</i>
    <i name="AMIX_MAG">      1.60000000</i>
    <i name="BMIX_MAG">      1.00000000</i>
    <separator name="electronic mixer details" >
     <i type="int" name="IMIX">     4</i>
     <i type="int" name="MAXMIX">   -45</i>
     <i name="WC">    100.00000000</i>
     <i type="int" name="INIMIX">     1</i>
     <i type="int" name="MIXPRE">     1</i>
     <i type="int" name="MREMOVE">     5</i>
    </separator>
   </separator>
   <separator name="electronic dipolcorrection" >
    <i type="logical" name="LDIPOL"> F  </i>
    <i type="logical" name="LMONO"> F  </i>
    <i type="int" name="IDIPOL">     0</i>
    <i name="EPSILON">      1.00000000</i>
    <v name="DIPOL">   -100.00000000   -100.00000000   -100.00000000</v>
    <i name="EFIELD">      0.00000000</i>
   </separator>
  </separator>
  <separator name="grids" >
   <i type="int" name="NGX">    98</i>
   <i type="int" name="NGY">    98</i>
   <i type="int" name="NGZ">    98</i>
   <i type="int" name="NGXF">   168</i>
   <i type="int" name="NGYF">   168</i>
   <i type="int" name="NGZF">   168</i>
   <i type="logical" name="ADDGRID"> F  </i>
  </separator>
  <separator name="ionic" >
   <i type="int" name="NSW">   200</i>
   <i type="int" name="IBRION">     2</i>
   <i type="int" name="ISIF">     2</i>
   <i name="PSTRESS">      0.00000000</i>
   <i name="EDIFFG">     -0.01000000</i>
   <i type="int" name="NFREE">     2</i>
   <i name="POTIM">      0.50000000</i>
   <i name="SMASS">     -3.00000000</i>
   <i name="SCALEE">      1.00000000</i>
  </separator>
  <separator name="ionic md" >
   <i name="TEBEG">      0.00010000</i>
   <i name="TEEND">      0.00010000</i>
   <i type="int" name="NBLOCK">     1</i>
   <i type="int" name="KBLOCK">   200</i>
   <i type="int" name="NPACO">   256</i>
   <i name="APACO">     16.00000000</i>
  </separator>
  <separator name="symmetry" >
   <i type="int" name="ISYM">     0</i>
   <i name="SYMPREC">      0.00001000</i>
  </separator>
  <separator name="dos" >
   <i type="logical" name="LORBIT"> F  </i>
   <v name="RWIGS">     -1.00000000     -1.00000000</v>
   <i type="int" name="NEDOS">   301</i>
   <i name="EMIN">     10.00000000</i>
   <i name="EMAX">    -10.00000000</i>
   <i name="EFERMI">      0.00000000</i>
  </separator>
  <separator name="writing" >
   <i type="int" name="NWRITE">     1</i>
   <i type="logical" name="LWAVE"> F  </i>
   <i type="logical" name="LCHARG"> F  </i>
   <i type="logical" name="LPARD"> F  </i>
   <i type="logical" name="LVTOT"> F  </i>
   <i type="logical" name="LVHAR"> F  </i>
   <i type="logical" name="LELF"> F  </i>
   <i type="logical" name="LOPTICS"> F  </i>
   <v name="STM">      0.00000000      0.00000000      0.00000000      0.00000000      0.00000000      0.00000000      0.00000000</v>
  </separator>
  <separator name="performance" >
   <i type="int" name="NPAR">     1</i>
   <i type="int" name="NSIM">     4</i>
   <i type="int" name="NBLK">    -1</i>
   <i type="logical" name="LPLANE"> T  </i>
   <i type="logical" name="LSCALAPACK"> F  </i>
   <i type="logical" name="LSCAAWARE"> F  </i>
   <i type="logical" name="LSCALU"> F  </i>
   <i type="logical" name="LASYNC"> F  </i>
   <i type="logical" name="LORBITALREAL"> F  </i>
  </separator>
  <separator name="miscellaneous" >
   <i type="int" name="IDIOT">     3</i>
   <i type="logical" name="LMUSIC"> F  </i>
   <v name="POMASS">     12.01100000      1.00000000</v>
   <v name="DARWINR">      0.00000000      0.00000000</v>
   <v name="DARWINV">      1.00000000      1.00000000</v>
   <i type="logical" name="LCORR"> T  </i>
  </separator>
  <i type="logical" name="GGA_COMPAT"> T  </i>
  <i type="logical" name="LBERRY"> F  </i>
  <i type="int" name="ICORELEVEL">     0</i>
  <i type="logical" name="LDAU"> F  </i>
  <i type="int" name="I_CONSTRAINED_M">     0</i>
  <separator name="electronic exchange-correlation" >
   <i type="string" name="GGA">--</i>
   <i type="int" name="VOSKOWN">     1</i>
   <i type="logical" name="LHFCALC"> F  </i>
   <i type="string" name="PRECFOCK"></i>
   <i type="logical" name="LSYMGRAD"> F  </i>
   <i type="logical" name="LHFONE"> F  </i>
   <i type="logical" name="LRHFCALC"> F  </i>
   <i type="logical" name="LTHOMAS"> F  </i>
   <i type="logical" name="LMODELHF"> F  </i>
   <i name="ENCUT4O">     -1.00000000</i>
   <i type="int" name="EXXOEP">     0</i>
   <i type="int" name="FOURORBIT">     0</i>
   <i name="AEXX">      0.00000000</i>
   <i name="HFALPHA">      0.00000000</i>
   <i name="MCALPHA">      0.00000000</i>
   <i name="ALDAX">      1.00000000</i>
   <i name="AGGAX">      1.00000000</i>
   <i name="ALDAC">      1.00000000</i>
   <i name="AGGAC">      1.00000000</i>
   <i type="int" name="NKREDX">     1</i>
   <i type="int" name="NKREDY">     1</i>
   <i type="int" name="NKREDZ">     1</i>
   <i type="logical" name="SHIFTRED"> F  </i>
   <i type="logical" name="ODDONLY"> F  </i>
   <i type="logical" name="EVENONLY"> F  </i>
   <i type="int" name="LMAXFOCK">     0</i>
   <i type="int" name="NMAXFOCKAE">     0</i>
   <i type="logical" name="LFOCKAEDFT"> F  </i>
   <i name="HFSCREEN">      0.00000000</i>
   <i name="HFSCREENC">      0.00000000</i>
   <i type="int" name="NBANDSGWLOW">     0</i>
  </separator>
  <separator name="vdW DFT" >
   <i type="logical" name="LUSE_VDW"> F  </i>
   <i name="Zab_VDW">     -0.84910000</i>
   <i name="PARAM1">      0.12340000</i>
   <i name="PARAM2">      1.00000000</i>
   <i name="PARAM3">      0.00000000</i>
  </separator>
  <separator name="model GW" >
   <i type="int" name="MODEL_GW">     0</i>
   <i name="MODEL_EPS0">    800.00000000</i>
   <i name="MODEL_ALPHA">      1.00000000</i>
  </separator>
  <separator name="linear response parameters" >
   <i type="logical" name="LEPSILON"> F  </i>
   <i type="logical" name="LRPA"> F  </i>
   <i type="logical" name="LNABLA"> F  </i>
   <i type="logical" name="LVEL"> F  </i>
   <i type="int" name="KINTER">     0</i>
   <i name="CSHIFT">      0.10000000</i>
   <i name="OMEGAMAX">     -1.00000000</i>
   <i name="DEG_THRESHOLD">      0.00200000</i>
  </separator>
  <separator name="orbital magnetization" >
   <i type="logical" name="NUCIND"> F  </i>
   <v name="MAGPOS">      0.00000000      0.00000000      0.00000000</v>
   <i type="logical" name="LNICSALL"> T  </i>
   <i type="logical" name="ORBITALMAG"> F  </i>
   <i type="logical" name="LMAGBLOCH"> F  </i>
   <i type="logical" name="LCHIMAG"> F  </i>
   <i type="logical" name="LGAUGE"> T  </i>
   <i type="int" name="MAGATOM">     0</i>
   <v name="MAGDIPOL">      0.00000000      0.00000000      0.00000000</v>
   <v name="AVECCONST">      0.00000000      0.00000000      0.00000000</v>
  </separator>
  <separator name="response functions" >
   <i type="logical" name="LADDER"> F  </i>
   <i type="logical" name="LHARTREE"> T  </i>
   <i type="int" name="IBSE">     0</i>
   <i type="logical" name="LTCTE"> F  </i>
   <i type="logical" name="LTETE"> F  </i>
   <i type="logical" name="LTRIPLET"> F  </i>
   <i type="logical" name="LFXCEPS"> F  </i>
   <i type="logical" name="L2ORDER"> F  </i>
   <i type="logical" name="LUSEW"> F  </i>
   <i name="ENCUTGW">     -2.00000000</i>
   <i name="ENCUTGWSOFT">     -2.00000000</i>
   <i name="ENCUTLF">     -1.00000000</i>
   <i type="int" name="LMAXMP2">    -1</i>
   <i name="SCISSOR">      0.00000000</i>
   <i type="int" name="NOMEGA">     0</i>
   <i type="int" name="NOMEGAR">     0</i>
   <i type="int" name="NBANDSGW">    -1</i>
   <i type="int" name="NBANDSO">    -1</i>
   <i type="int" name="NBANDSV">    -1</i>
   <i type="int" name="NELM">   400</i>
   <i type="int" name="DIM">     3</i>
   <i type="int" name="ANTIRES">     0</i>
   <i name="OMEGAMAX">    -30.00000000</i>
   <i name="OMEGATL">   -200.00000000</i>
   <i type="int" name="OMEGAGRID">     0</i>
   <i name="CSHIFT">     -0.10000000</i>
   <i type="logical" name="SELFENERGY"> F  </i>
   <i type="logical" name="LSPECTRAL"> F  </i>
   <i type="logical" name="ODDONLYGW"> F  </i>
   <i type="logical" name="EVENONLYGW"> F  </i>
   <i type="int" name="NKREDLFX">     1</i>
   <i type="int" name="NKREDLFY">     1</i>
   <i type="int" name="NKREDLFZ">     1</i>
   <i type="int" name="MAXMEM">  1800</i>
   <i type="int" name="TELESCOPE">     0</i>
  </separator>
 </parameters>
 <atominfo>
  <atoms>       6 </atoms>
  <types>       2 </types>
  <array name="atoms" >
   <dimension dim="1">ion</dimension>
   <field type="string">element</field>
   <field type="int">atomtype</field>
   <set>
    <rc><c>C </c><c>   1</c></rc>
    <rc><c>C </c><c>   1</c></rc>
    <rc><c>H </c><c>   2</c></rc>
    <rc><c>H </c><c>   2</c></rc>
    <rc><c>H </c><c>   2</c></rc>
    <rc><c>H </c><c>   2</c></rc>
   </set>
  </array>
  <array name="atomtypes" >
   <dimension dim="1">type</dimension>
   <field type="int">atomspertype</field>
   <field type="string">element</field>
   <field>mass</field>
   <field>valence</field>
   <field type="string">pseudopotential</field>
   <set>
    <rc><c>   2</c><c>C </c><c>     12.01100000</c><c>      4.00000000</c><c>  PAW_PBE C 08Apr2002                   </c></rc>
    <rc><c>   4</c><c>H </c><c>      1.00000000</c><c>      1.00000000</c><c>  PAW_PBE H 15Jun2001                   </c></rc>
   </set>
  </array>
 </atominfo>
 <structure name="initialpos" >
  <crystal>
   <varray name="basis" >
    <v>      16.32993162      -8.16496581      -8.16496581 </v>
    <v>       0.00000000      14.14213562     -14.14213562 </v>
    <v>      11.54700538      11.54700538      11.54700538 </v>
   </varray>
   <i name="volume">   8000.00000000 </i>
   <varray name="rec_basis" >
    <v>       0.04082483      -0.02041241      -0.02041241 </v>
    <v>       0.00000000       0.03535534      -0.03535534 </v>
    <v>       0.02886751       0.02886751       0.02886751 </v>
   </varray>
  </crystal>
  <varray name="positions" >
   <v>       0.35573993       0.55232711       0.54409285 </v>
   <v>       0.40140806       0.53582484       0.58977390 </v>
   <v>       0.34641862       0.60435584       0.53029769 </v>
   <v>       0.32570216       0.51457508       0.51848472 </v>
   <v>       0.43147760       0.57363742       0.61526135 </v>
   <v>       0.41069447       0.48382730       0.60371929 </v>
  </varray>
  <varray name="selective"  type="logical" >
   <v type="logical" >  T  T  T </v>
   <v type="logical" >  T  T  T </v>
   <v type="logical" >  T  T  T </v>
   <v type="logical" >  T  T  T </v>
   <v type="logical" >  T  T  T </v>
   <v type="logical" >  T  T  T </v>
  </varray>
  <nose>
   <v>      -3.00000000       0.00000000       0.00010000       0.00010000 </v>
  </nose>
 </structure>
 <calculation>
  <scstep>
   <time name="dav">    0.27    0.30</time>
   <time name="total">    1.08    1.12</time>
   <energy>
    <i name="alphaZ">      0.07622704 </i>
    <i name="ewald">    382.13153834 </i>
    <i name="hartreedc">   -596.64926046 </i>
    <i name="XCdc">     34.47659746 </i>
    <i name="pawpsdc">    225.58020250 </i>
    <i name="pawaedc">   -226.75452526 </i>
    <i name="eentropy">      0.00057979 </i>
    <i name="bandstr">   -109.22245411 </i>
    <i name="atom">    344.16897840 </i>
    <i name="e_fr_energy">     53.80788370 </i>
    <i name="e_wo_entrp">     53.80730391 </i>
    <i name="e_0_energy">     53.80769044 </i>
   </energy>
  </scstep>
  <scstep>
   <time name="dav">    0.28    0.28</time>
   <time name="total">    0.28    0.32</time>
   <energy>
    <i name="e_fr_energy">    -20.19529703 </i>
    <i name="e_wo_entrp">    -20.19587682 </i>
    <i name="e_0_energy">    -20.19549030 </i>
   </energy>
  </scstep>
  <scstep>
   <time name="dav">    0.19    0.19</time>
   <time name="total">    0.19    0.21</time>
   <energy>
    <i name="e_fr_energy">    -35.24018342 </i>
    <i name="e_wo_entrp">    -35.24076321 </i>
    <i name="e_0_energy">    -35.24037668 </i>
   </energy>
  </scstep>
  <scstep>
   <time name="dav">    0.23    0.23</time>
   <time name="total">    0.23    0.26</time>
   <energy>
    <i name="e_fr_energy">    -36.07542372 </i>
    <i name="e_wo_entrp">    -36.07542372 </i>
    <i name="e_0_energy">    -36.07542372 </i>
   </energy>
  </scstep>
  <scstep>
   <time name="dav">    0.17    0.18</time>
   <time name="total">    0.18    0.20</time>
   <energy>
    <i name="e_fr_energy">    -36.07912064 </i>
    <i name="e_wo_entrp">    -36.07912064 </i>
    <i name="e_0_energy">    -36.07912064 </i>
   </energy>
  </scstep>
  <scstep>
   <time name="dav">    0.22    0.22</time>
   <time name="total">    0.22    0.24</time>
   <energy>
    <i name="e_fr_energy">    -36.07919562 </i>
    <i name="e_wo_entrp">    -36.07919562 </i>
    <i name="e_0_energy">    -36.07919562 </i>
   </energy>
  </scstep>
  <scstep>
   <time name="dav">    0.22    0.22</time>
   <time name="total">    0.22    0.25</time>
   <energy>
    <i name="e_fr_energy">    -36.07919579 </i>
    <i name="e_wo_entrp">    -36.07919579 </i>
    <i name="e_0_energy">    -36.07919579 </i>
   </energy>
  </scstep>
  <scstep>
   <time name="dav">    0.22    0.22</time>
   <time name="total">    0.22    0.25</time>
   <energy>
    <i name="e_fr_energy">    -36.07919579 </i>
    <i name="e_wo_entrp">    -36.07919579 </i>
    <i name="e_0_energy">    -36.07919579 </i>
   </energy>
  </scstep>
  <scstep>
   <time name="dav">    0.22    0.23</time>
   <time name="total">    0.22    0.25</time>
   <energy>
    <i name="e_fr_energy">    -36.07919579 </i>
    <i name="e_wo_entrp">    -36.07919579 </i>
    <i name="e_0_energy">    -36.07919579 </i>
   </energy>
  </scstep>
  <scstep>
   <time name="dav">    0.14    0.14</time>
   <time name="total">    0.17    0.19</time>
   <energy>
    <i name="e_fr_energy">    -36.07919579 </i>
    <i name="e_wo_entrp">    -36.07919579 </i>
    <i name="e_0_energy">    -36.07919579 </i>
   </energy>
  </scstep>
  <scstep>
   <time name="diag">    0.03    0.03</time>
   <time name="diis">    0.12    0.12</time>
   <time name="orth">    0.00    0.00</time>
   <time name="total">    0.37    0.40</time>
   <energy>
    <i name="e_fr_energy">    -32.80610143 </i>
    <i name="e_wo_entrp">    -32.80668122 </i>
    <i name="e_0_energy">    -32.80629470 </i>
   </energy>
  </scstep>
  <scstep>
   <time name="diag">    0.03    0.03</time>
   <time name="diis">    0.12    0.12</time>
   <time name="orth">    0.00    0.00</time>
   <time name="total">    0.36    0.40</time>
   <energy>
    <i name="e_fr_energy">    -32.06743478 </i>
    <i name="e_wo_entrp">    -32.06801457 </i>
    <i name="e_0_energy">    -32.06762804 </i>
   </energy>
  </scstep>
  <scstep>
   <time name="diag">    0.03    0.03</time>
   <time name="diis">    0.12    0.12</time>
   <time name="orth">    0.00    0.00</time>
   <time name="total">    0.37    0.39</time>
   <energy>
    <i name="e_fr_energy">    -31.96411736 </i>
    <i name="e_wo_entrp">    -31.96469715 </i>
    <i name="e_0_energy">    -31.96431062 </i>
   </energy>
  </scstep>
  <scstep>
   <time name="diag">    0.03    0.03</time>
   <time name="diis">    0.12    0.12</time>
   <time name="orth">    0.00    0.00</time>
   <time name="total">    0.37    0.39</time>
   <energy>
    <i name="e_fr_energy">    -31.95896214 </i>
    <i name="e_wo_entrp">    -31.95954193 </i>
    <i name="e_0_energy">    -31.95915540 </i>
   </energy>
  </scstep>
  <scstep>
   <time name="diag">    0.03    0.03</time>
   <time name="diis">    0.12    0.12</time>
   <time name="orth">    0.00    0.00</time>
   <time name="total">    0.37    0.40</time>
   <energy>
    <i name="e_fr_energy">    -31.95634016 </i>
    <i name="e_wo_entrp">    -31.95634016 </i>
    <i name="e_0_energy">    -31.95634016 </i>
   </energy>
  </scstep>
  <scstep>
   <time name="diag">    0.03    0.03</time>
   <time name="diis">    0.12    0.12</time>
   <time name="orth">    0.00    0.00</time>
   <time name="total">    0.37    0.39</time>
   <energy>
    <i name="e_fr_energy">    -31.95670744 </i>
    <i name="e_wo_entrp">    -31.95728723 </i>
    <i name="e_0_energy">    -31.95690070 </i>
   </energy>
  </scstep>
  <scstep>
   <time name="diag">    0.03    0.03</time>
   <time name="diis">    0.12    0.12</time>
   <time name="orth">    0.00    0.00</time>
   <time name="total">    0.37    0.40</time>
   <energy>
    <i name="e_fr_energy">    -31.96293100 </i>
    <i name="e_wo_entrp">    -31.96351079 </i>
    <i name="e_0_energy">    -31.96312427 </i>
   </energy>
  </scstep>
  <scstep>
   <time name="diag">    0.03    0.03</time>
   <time name="diis">    0.13    0.13</time>
   <time name="orth">    0.00    0.00</time>
   <time name="total">    0.38    0.40</time>
   <energy>
    <i name="e_fr_energy">    -31.96425860 </i>
    <i name="e_wo_entrp">    -31.96483839 </i>
    <i name="e_0_energy">    -31.96445186 </i>
   </energy>
  </scstep>
  <scstep>
   <time name="diag">    0.03    0.03</time>
   <time name="diis">    0.12    0.12</time>
   <time name="orth">    0.00    0.00</time>
   <time name="total">    0.38    0.40</time>
   <energy>
    <i name="e_fr_energy">    -31.96892364 </i>
    <i name="e_wo_entrp">    -31.96950343 </i>
    <i name="e_0_energy">    -31.96911690 </i>
   </energy>
  </scstep>
  <scstep>
   <time name="diag">    0.03    0.03</time>
   <time name="diis">    0.13    0.13</time>
   <time name="orth">    0.00    0.00</time>
   <time name="total">    0.39    0.41</time>
   <energy>
    <i name="e_fr_energy">    -31.96918415 </i>
    <i name="e_wo_entrp">    -31.96976394 </i>
    <i name="e_0_energy">    -31.96937741 </i>
   </energy>
  </scstep>
  <scstep>
   <time name="diag">    0.03    0.03</time>
   <time name="diis">    0.12    0.12</time>
   <time name="orth">    0.00    0.00</time>
   <time name="total">    0.38    0.40</time>
   <energy>
    <i name="e_fr_energy">    -31.97007721 </i>
    <i name="e_wo_entrp">    -31.97065700 </i>
    <i name="e_0_energy">    -31.97027048 </i>
   </energy>
  </scstep>
  <scstep>
   <time name="diag">    0.03    0.03</time>
   <time name="diis">    0.12    0.12</time>
   <time name="orth">    0.00    0.00</time>
   <time name="total">    0.38    0.40</time>
   <energy>
    <i name="e_fr_energy">    -31.97010450 </i>
    <i name="e_wo_entrp">    -31.97068429 </i>
    <i name="e_0_energy">    -31.97029776 </i>
   </energy>
  </scstep>
  <scstep>
   <time name="diag">    0.03    0.03</time>
   <time name="diis">    0.12    0.12</time>
   <time name="orth">    0.00    0.00</time>
   <time name="total">    0.38    0.40</time>
   <energy>
    <i name="e_fr_energy">    -31.97026281 </i>
    <i name="e_wo_entrp">    -31.97084260 </i>
    <i name="e_0_energy">    -31.97045608 </i>
   </energy>
  </scstep>
  <scstep>
   <time name="diag">    0.03    0.03</time>
   <time name="diis">    0.10    0.10</time>
   <time name="orth">    0.00    0.00</time>
   <time name="total">    0.35    0.37</time>
   <energy>
    <i name="e_fr_energy">    -31.97030549 </i>
    <i name="e_wo_entrp">    -31.97088528 </i>
    <i name="e_0_energy">    -31.97049875 </i>
   </energy>
  </scstep>
  <scstep>
   <time name="diag">    0.03    0.03</time>
   <time name="diis">    0.09    0.09</time>
   <time name="orth">    0.00    0.00</time>
   <time name="total">    0.35    0.37</time>
   <energy>
    <i name="e_fr_energy">    -31.97034857 </i>
    <i name="e_wo_entrp">    -31.97092836 </i>
    <i name="e_0_energy">    -31.97054183 </i>
   </energy>
  </scstep>
  <scstep>
   <time name="diag">    0.03    0.03</time>
   <time name="diis">    0.09    0.09</time>
   <time name="orth">    0.00    0.00</time>
   <time name="total">    0.35    0.37</time>
   <energy>
    <i name="e_fr_energy">    -31.97035722 </i>
    <i name="e_wo_entrp">    -31.97093701 </i>
    <i name="e_0_energy">    -31.97055048 </i>
   </energy>
  </scstep>
  <scstep>
   <time name="diag">    0.03    0.03</time>
   <time name="diis">    0.09    0.09</time>
   <time name="orth">    0.00    0.00</time>
   <time name="total">    0.35    0.38</time>
   <energy>
    <i name="e_fr_energy">    -31.97036285 </i>
    <i name="e_wo_entrp">    -31.97094264 </i>
    <i name="e_0_energy">    -31.97055611 </i>
   </energy>
  </scstep>
  <scstep>
   <time name="diag">    0.03    0.03</time>
   <time name="diis">    0.07    0.08</time>
   <time name="orth">    0.00    0.00</time>
   <time name="total">    0.34    0.36</time>
   <energy>
    <i name="e_fr_energy">    -31.97036410 </i>
    <i name="e_wo_entrp">    -31.97094389 </i>
    <i name="e_0_energy">    -31.97055737 </i>
   </energy>
  </scstep>
  <scstep>
   <time name="diag">    0.03    0.03</time>
   <time name="diis">    0.09    0.09</time>
   <time name="orth">    0.00    0.00</time>
   <time name="total">    0.31    0.33</time>
   <energy>
    <i name="alphaZ">      0.07622704 </i>
    <i name="ewald">    382.13153834 </i>
    <i name="hartreedc">   -655.30098393 </i>
    <i name="XCdc">     37.87529371 </i>
    <i name="pawpsdc">    855.93362937 </i>
    <i name="pawaedc">   -857.39612726 </i>
    <i name="eentropy">      0.00057979 </i>
    <i name="bandstr">   -139.45950024 </i>
    <i name="atom">    344.16897840 </i>
    <i name="e_fr_energy">    -31.97036477 </i>
    <i name="e_wo_entrp">    -31.97094456 </i>
    <i name="e_0_energy">    -31.97055804 </i>
   </energy>
  </scstep>
  <structure>
   <crystal>
    <varray name="basis" >
     <v>      16.32993162      -8.16496581      -8.16496581 </v>
     <v>       0.00000000      14.14213562     -14.14213562 </v>
     <v>      11.54700538      11.54700538      11.54700538 </v>
    </varray>
    <i name="volume">   8000.00000000 </i>
    <varray name="rec_basis" >
     <v>       0.04082483      -0.02041241      -0.02041241 </v>
     <v>       0.00000000       0.03535534      -0.03535534 </v>
     <v>       0.02886751       0.02886751       0.02886751 </v>
    </varray>
   </crystal>
   <varray name="positions" >
    <v>       0.35573993       0.55232711       0.54409285 </v>
    <v>       0.40140806       0.53582484       0.58977390 </v>
    <v>       0.34641862       0.60435584       0.53029769 </v>
    <v>       0.32570216       0.51457508       0.51848472 </v>
    <v>       0.43147760       0.57363742       0.61526135 </v>
    <v>       0.41069447       0.48382730       0.60371929 </v>
   </varray>
  </structure>
  <varray name="forces" >
   <v>       0.00065567       0.00099481      -0.00402399 </v>
   <v>       0.00077550       0.00116321       0.00603794 </v>
   <v>       0.00273766      -0.00284046      -0.00256831 </v>
   <v>       0.00068116      -0.00049769       0.00753223 </v>
   <v>       0.00126672       0.00524650      -0.00051213 </v>
   <v>      -0.00611671      -0.00406638      -0.00646574 </v>
  </varray>
  <varray name="stress" >
   <v>      -0.09261184       0.00214932       0.00148469 </v>
   <v>       0.00214932      -0.10539408      -0.00698573 </v>
   <v>       0.00148469      -0.00698573      -0.10347788 </v>
  </varray>
  <energy>
   <i name="e_fr_energy">    -31.98287725 </i>
   <i name="e_wo_entrp">    -31.98307051 </i>
   <i name="e_0_energy">      0.00057979 </i>
  </energy>
  <time name="totalsc">   10.68   11.44</time>
  <eigenvalues>
   <array>
    <dimension dim="1">band</dimension>
    <dimension dim="2">kpoint</dimension>
    <dimension dim="3">spin</dimension>
    <field>eigene</field>
    <field>occ</field>
    <set>
     <set comment="spin 1">
      <set comment="kpoint 1">
       <r>  -18.7663    1.0000 </r>
       <r>  -14.1901    1.0000 </r>
       <r>  -11.4075    1.0000 </r>
       <r>  -10.1525    1.0000 </r>
       <r>   -8.4654    1.0000 </r>
       <r>   -6.7478    1.0000 </r>
       <r>   -1.0762    0.0000 </r>
       <r>   -0.3222    0.0000 </r>
       <r>    0.1295    0.0000 </r>
       <r>    0.1748    0.0000 </r>
      </set>
     </set>
    </set>
   </array>
  </eigenvalues>
  <separator name="orbital magnetization" >
   <v name="MAGDIPOLOUT">      0.00000000      0.00000000      0.00000000</v>
  </separator>
  <dos>
   <i name="efermi">     -6.73940913 </i>
   <total>
    <array>
     <dimension dim="1">gridpoints</dimension>
     <dimension dim="2">spin</dimension>
     <field>energy</field>
     <field>total</field>
     <field>integrated</field>
     <set>
      <set comment="spin 1">
       <r>   -19.7134     0.0000     0.0000 </r>
       <r>   -19.6439     0.0000     0.0000 </r>
       <r>   -19.5745     0.0000     0.0000 </r>
       <r>   -19.5050     0.0000     0.0000 </r>
       <r>   -19.4356     0.0000     0.0000 </r>
       <r>   -19.3661     0.0000     0.0000 </r>
       <r>   -19.2967     0.0000     0.0000 </r>
       <r>   -19.2272     0.0000     0.0000 </r>
       <r>   -19.1578     0.0000     0.0000 </r>
       <r>   -19.0883     0.0000     0.0000 </r>
       <r>   -19.0189     0.0000     0.0000 </r>
       <r>   -18.9494     0.0000     0.0000 </r>
       <r>   -18.8800    -0.0000    -0.0000 </r>
       <r>   -18.8105    -0.0000    -0.0000 </r>
       <r>   -18.7411    28.8271     2.0021 </r>
       <r>   -18.6716     0.0000     2.0000 </r>
       <r>   -18.6022     0.0000     2.0000 </r>
       <r>   -18.5327     0.0000     2.0000 </r>
       <r>   -18.4633     0.0000     2.0000 </r>
       <r>   -18.3938     0.0000     2.0000 </r>
       <r>   -18.3244     0.0000     2.0000 </r>
       <r>   -18.2549     0.0000     2.0000 </r>
       <r>   -18.1855     0.0000     2.0000 </r>
       <r>   -18.1160     0.0000     2.0000 </r>
       <r>   -18.0466     0.0000     2.0000 </r>
       <r>   -17.9771     0.0000     2.0000 </r>
       <r>   -17.9077     0.0000     2.0000 </r>
       <r>   -17.8382     0.0000     2.0000 </r>
       <r>   -17.7688     0.0000     2.0000 </r>
       <r>   -17.6993     0.0000     2.0000 </r>
       <r>   -17.6299     0.0000     2.0000 </r>
       <r>   -17.5604     0.0000     2.0000 </r>
       <r>   -17.4910     0.0000     2.0000 </r>
       <r>   -17.4215     0.0000     2.0000 </r>
       <r>   -17.3521     0.0000     2.0000 </r>
       <r>   -17.2826     0.0000     2.0000 </r>
       <r>   -17.2132     0.0000     2.0000 </r>
       <r>   -17.1437     0.0000     2.0000 </r>
       <r>   -17.0743     0.0000     2.0000 </r>
       <r>   -17.0048     0.0000     2.0000 </r>
       <r>   -16.9354     0.0000     2.0000 </r>
       <r>   -16.8659     0.0000     2.0000 </r>
       <r>   -16.7965     0.0000     2.0000 </r>
       <r>   -16.7270     0.0000     2.0000 </r>
       <r>   -16.6576     0.0000     2.0000 </r>
       <r>   -16.5881     0.0000     2.0000 </r>
       <r>   -16.5187     0.0000     2.0000 </r>
       <r>   -16.4492     0.0000     2.0000 </r>
       <r>   -16.3798     0.0000     2.0000 </r>
       <r>   -16.3103     0.0000     2.0000 </r>
       <r>   -16.2408     0.0000     2.0000 </r>
       <r>   -16.1714     0.0000     2.0000 </r>
       <r>   -16.1019     0.0000     2.0000 </r>
       <r>   -16.0325     0.0000     2.0000 </r>
       <r>   -15.9630     0.0000     2.0000 </r>
       <r>   -15.8936     0.0000     2.0000 </r>
       <r>   -15.8241     0.0000     2.0000 </r>
       <r>   -15.7547     0.0000     2.0000 </r>
       <r>   -15.6852     0.0000     2.0000 </r>
       <r>   -15.6158     0.0000     2.0000 </r>
       <r>   -15.5463     0.0000     2.0000 </r>
       <r>   -15.4769     0.0000     2.0000 </r>
       <r>   -15.4074     0.0000     2.0000 </r>
       <r>   -15.3380     0.0000     2.0000 </r>
       <r>   -15.2685     0.0000     2.0000 </r>
       <r>   -15.1991     0.0000     2.0000 </r>
       <r>   -15.1296     0.0000     2.0000 </r>
       <r>   -15.0602     0.0000     2.0000 </r>
       <r>   -14.9907     0.0000     2.0000 </r>
       <r>   -14.9213     0.0000     2.0000 </r>
       <r>   -14.8518     0.0000     2.0000 </r>
       <r>   -14.7824     0.0000     2.0000 </r>
       <r>   -14.7129     0.0000     2.0000 </r>
       <r>   -14.6435     0.0000     2.0000 </r>
       <r>   -14.5740     0.0000     2.0000 </r>
       <r>   -14.5046     0.0000     2.0000 </r>
       <r>   -14.4351     0.0000     2.0000 </r>
       <r>   -14.3657     0.0000     2.0000 </r>
       <r>   -14.2962    -0.0000     2.0000 </r>
       <r>   -14.2268    -0.0000     2.0000 </r>
       <r>   -14.1573    28.7979     4.0000 </r>
       <r>   -14.0879     0.0000     4.0000 </r>
       <r>   -14.0184     0.0000     4.0000 </r>
       <r>   -13.9490     0.0000     4.0000 </r>
       <r>   -13.8795     0.0000     4.0000 </r>
       <r>   -13.8101     0.0000     4.0000 </r>
       <r>   -13.7406     0.0000     4.0000 </r>
       <r>   -13.6712     0.0000     4.0000 </r>
       <r>   -13.6017     0.0000     4.0000 </r>
       <r>   -13.5323     0.0000     4.0000 </r>
       <r>   -13.4628     0.0000     4.0000 </r>
       <r>   -13.3934     0.0000     4.0000 </r>
       <r>   -13.3239     0.0000     4.0000 </r>
       <r>   -13.2545     0.0000     4.0000 </r>
       <r>   -13.1850     0.0000     4.0000 </r>
       <r>   -13.1156     0.0000     4.0000 </r>
       <r>   -13.0461     0.0000     4.0000 </r>
       <r>   -12.9767     0.0000     4.0000 </r>
       <r>   -12.9072     0.0000     4.0000 </r>
       <r>   -12.8378     0.0000     4.0000 </r>
       <r>   -12.7683     0.0000     4.0000 </r>
       <r>   -12.6989     0.0000     4.0000 </r>
       <r>   -12.6294     0.0000     4.0000 </r>
       <r>   -12.5600     0.0000     4.0000 </r>
       <r>   -12.4905     0.0000     4.0000 </r>
       <r>   -12.4211     0.0000     4.0000 </r>
       <r>   -12.3516     0.0000     4.0000 </r>
       <r>   -12.2822     0.0000     4.0000 </r>
       <r>   -12.2127     0.0000     4.0000 </r>
       <r>   -12.1433     0.0000     4.0000 </r>
       <r>   -12.0738     0.0000     4.0000 </r>
       <r>   -12.0043     0.0000     4.0000 </r>
       <r>   -11.9349     0.0000     4.0000 </r>
       <r>   -11.8654     0.0000     4.0000 </r>
       <r>   -11.7960     0.0000     4.0000 </r>
       <r>   -11.7265     0.0000     4.0000 </r>
       <r>   -11.6571     0.0000     4.0000 </r>
       <r>   -11.5876     0.0000     4.0000 </r>
       <r>   -11.5182    -0.0000     4.0000 </r>
       <r>   -11.4487    -0.0000     4.0000 </r>
       <r>   -11.3793    28.8044     6.0005 </r>
       <r>   -11.3098     0.0000     6.0000 </r>
       <r>   -11.2404     0.0000     6.0000 </r>
       <r>   -11.1709     0.0000     6.0000 </r>
       <r>   -11.1015     0.0000     6.0000 </r>
       <r>   -11.0320     0.0000     6.0000 </r>
       <r>   -10.9626     0.0000     6.0000 </r>
       <r>   -10.8931     0.0000     6.0000 </r>
       <r>   -10.8237     0.0000     6.0000 </r>
       <r>   -10.7542     0.0000     6.0000 </r>
       <r>   -10.6848     0.0000     6.0000 </r>
       <r>   -10.6153     0.0000     6.0000 </r>
       <r>   -10.5459     0.0000     6.0000 </r>
       <r>   -10.4764     0.0000     6.0000 </r>
       <r>   -10.4070     0.0000     6.0000 </r>
       <r>   -10.3375     0.0000     6.0000 </r>
       <r>   -10.2681    -0.0000     6.0000 </r>
       <r>   -10.1986    -0.0000     6.0000 </r>
       <r>   -10.1292    28.8652     8.0047 </r>
       <r>   -10.0597     0.0000     8.0000 </r>
       <r>    -9.9903     0.0000     8.0000 </r>
       <r>    -9.9208     0.0000     8.0000 </r>
       <r>    -9.8514     0.0000     8.0000 </r>
       <r>    -9.7819     0.0000     8.0000 </r>
       <r>    -9.7125     0.0000     8.0000 </r>
       <r>    -9.6430     0.0000     8.0000 </r>
       <r>    -9.5736     0.0000     8.0000 </r>
       <r>    -9.5041     0.0000     8.0000 </r>
       <r>    -9.4347     0.0000     8.0000 </r>
       <r>    -9.3652     0.0000     8.0000 </r>
       <r>    -9.2958     0.0000     8.0000 </r>
       <r>    -9.2263     0.0000     8.0000 </r>
       <r>    -9.1569     0.0000     8.0000 </r>
       <r>    -9.0874     0.0000     8.0000 </r>
       <r>    -9.0180     0.0000     8.0000 </r>
       <r>    -8.9485     0.0000     8.0000 </r>
       <r>    -8.8791     0.0000     8.0000 </r>
       <r>    -8.8096     0.0000     8.0000 </r>
       <r>    -8.7402     0.0000     8.0000 </r>
       <r>    -8.6707     0.0000     8.0000 </r>
       <r>    -8.6013    -0.0000     8.0000 </r>
       <r>    -8.5318    -0.0000     8.0000 </r>
       <r>    -8.4624    21.5093     9.4938 </r>
       <r>    -8.3929     7.2880    10.0000 </r>
       <r>    -8.3235     0.0000    10.0000 </r>
       <r>    -8.2540     0.0000    10.0000 </r>
       <r>    -8.1846     0.0000    10.0000 </r>
       <r>    -8.1151     0.0000    10.0000 </r>
       <r>    -8.0457     0.0000    10.0000 </r>
       <r>    -7.9762     0.0000    10.0000 </r>
       <r>    -7.9068     0.0000    10.0000 </r>
       <r>    -7.8373     0.0000    10.0000 </r>
       <r>    -7.7678     0.0000    10.0000 </r>
       <r>    -7.6984     0.0000    10.0000 </r>
       <r>    -7.6289     0.0000    10.0000 </r>
       <r>    -7.5595     0.0000    10.0000 </r>
       <r>    -7.4900     0.0000    10.0000 </r>
       <r>    -7.4206     0.0000    10.0000 </r>
       <r>    -7.3511     0.0000    10.0000 </r>
       <r>    -7.2817     0.0000    10.0000 </r>
       <r>    -7.2122     0.0000    10.0000 </r>
       <r>    -7.1428     0.0000    10.0000 </r>
       <r>    -7.0733     0.0000    10.0000 </r>
       <r>    -7.0039     0.0000    10.0000 </r>
       <r>    -6.9344     0.0000    10.0000 </r>
       <r>    -6.8650    -0.0000    10.0000 </r>
       <r>    -6.7955    -0.0000    10.0000 </r>
       <r>    -6.7261    28.9234    12.0088 </r>
       <r>    -6.6566     0.0000    12.0000 </r>
       <r>    -6.5872     0.0000    12.0000 </r>
       <r>    -6.5177     0.0000    12.0000 </r>
       <r>    -6.4483     0.0000    12.0000 </r>
       <r>    -6.3788     0.0000    12.0000 </r>
       <r>    -6.3094     0.0000    12.0000 </r>
       <r>    -6.2399     0.0000    12.0000 </r>
       <r>    -6.1705     0.0000    12.0000 </r>
       <r>    -6.1010     0.0000    12.0000 </r>
       <r>    -6.0316     0.0000    12.0000 </r>
       <r>    -5.9621     0.0000    12.0000 </r>
       <r>    -5.8927     0.0000    12.0000 </r>
       <r>    -5.8232     0.0000    12.0000 </r>
       <r>    -5.7538     0.0000    12.0000 </r>
       <r>    -5.6843     0.0000    12.0000 </r>
       <r>    -5.6149     0.0000    12.0000 </r>
       <r>    -5.5454     0.0000    12.0000 </r>
       <r>    -5.4760     0.0000    12.0000 </r>
       <r>    -5.4065     0.0000    12.0000 </r>
       <r>    -5.3371     0.0000    12.0000 </r>
       <r>    -5.2676     0.0000    12.0000 </r>
       <r>    -5.1982     0.0000    12.0000 </r>
       <r>    -5.1287     0.0000    12.0000 </r>
       <r>    -5.0593     0.0000    12.0000 </r>
       <r>    -4.9898     0.0000    12.0000 </r>
       <r>    -4.9204     0.0000    12.0000 </r>
       <r>    -4.8509     0.0000    12.0000 </r>
       <r>    -4.7815     0.0000    12.0000 </r>
       <r>    -4.7120     0.0000    12.0000 </r>
       <r>    -4.6426     0.0000    12.0000 </r>
       <r>    -4.5731     0.0000    12.0000 </r>
       <r>    -4.5037     0.0000    12.0000 </r>
       <r>    -4.4342     0.0000    12.0000 </r>
       <r>    -4.3648     0.0000    12.0000 </r>
       <r>    -4.2953     0.0000    12.0000 </r>
       <r>    -4.2259     0.0000    12.0000 </r>
       <r>    -4.1564     0.0000    12.0000 </r>
       <r>    -4.0870     0.0000    12.0000 </r>
       <r>    -4.0175     0.0000    12.0000 </r>
       <r>    -3.9481     0.0000    12.0000 </r>
       <r>    -3.8786     0.0000    12.0000 </r>
       <r>    -3.8092     0.0000    12.0000 </r>
       <r>    -3.7397     0.0000    12.0000 </r>
       <r>    -3.6703     0.0000    12.0000 </r>
       <r>    -3.6008     0.0000    12.0000 </r>
       <r>    -3.5313     0.0000    12.0000 </r>
       <r>    -3.4619     0.0000    12.0000 </r>
       <r>    -3.3924     0.0000    12.0000 </r>
       <r>    -3.3230     0.0000    12.0000 </r>
       <r>    -3.2535     0.0000    12.0000 </r>
       <r>    -3.1841     0.0000    12.0000 </r>
       <r>    -3.1146     0.0000    12.0000 </r>
       <r>    -3.0452     0.0000    12.0000 </r>
       <r>    -2.9757     0.0000    12.0000 </r>
       <r>    -2.9063     0.0000    12.0000 </r>
       <r>    -2.8368     0.0000    12.0000 </r>
       <r>    -2.7674     0.0000    12.0000 </r>
       <r>    -2.6979     0.0000    12.0000 </r>
       <r>    -2.6285     0.0000    12.0000 </r>
       <r>    -2.5590     0.0000    12.0000 </r>
       <r>    -2.4896     0.0000    12.0000 </r>
       <r>    -2.4201     0.0000    12.0000 </r>
       <r>    -2.3507     0.0000    12.0000 </r>
       <r>    -2.2812     0.0000    12.0000 </r>
       <r>    -2.2118     0.0000    12.0000 </r>
       <r>    -2.1423     0.0000    12.0000 </r>
       <r>    -2.0729     0.0000    12.0000 </r>
       <r>    -2.0034     0.0000    12.0000 </r>
       <r>    -1.9340     0.0000    12.0000 </r>
       <r>    -1.8645     0.0000    12.0000 </r>
       <r>    -1.7951     0.0000    12.0000 </r>
       <r>    -1.7256     0.0000    12.0000 </r>
       <r>    -1.6562     0.0000    12.0000 </r>
       <r>    -1.5867     0.0000    12.0000 </r>
       <r>    -1.5173     0.0000    12.0000 </r>
       <r>    -1.4478     0.0000    12.0000 </r>
       <r>    -1.3784     0.0000    12.0000 </r>
       <r>    -1.3089     0.0000    12.0000 </r>
       <r>    -1.2395     0.0000    12.0000 </r>
       <r>    -1.1700    -0.0000    12.0000 </r>
       <r>    -1.1006    -0.0440    11.9969 </r>
       <r>    -1.0311    28.8414    14.0000 </r>
       <r>    -0.9617     0.0000    14.0000 </r>
       <r>    -0.8922     0.0000    14.0000 </r>
       <r>    -0.8228     0.0000    14.0000 </r>
       <r>    -0.7533     0.0000    14.0000 </r>
       <r>    -0.6839     0.0000    14.0000 </r>
       <r>    -0.6144     0.0000    14.0000 </r>
       <r>    -0.5450     0.0000    14.0000 </r>
       <r>    -0.4755     0.0000    14.0000 </r>
       <r>    -0.4061    -0.0000    14.0000 </r>
       <r>    -0.3366    -0.8677    13.9397 </r>
       <r>    -0.2672    29.6651    16.0000 </r>
       <r>    -0.1977     0.0000    16.0000 </r>
       <r>    -0.1283     0.0000    16.0000 </r>
       <r>    -0.0588     0.0000    16.0000 </r>
       <r>     0.0106    -0.0000    16.0000 </r>
       <r>     0.0801    -0.0000    16.0000 </r>
       <r>     0.1495    28.9975    18.0139 </r>
       <r>     0.2190    28.8271    20.0000 </r>
       <r>     0.2884     0.0000    20.0000 </r>
       <r>     0.3579     0.0000    20.0000 </r>
       <r>     0.4273     0.0000    20.0000 </r>
       <r>     0.4968     0.0000    20.0000 </r>
       <r>     0.5662     0.0000    20.0000 </r>
       <r>     0.6357     0.0000    20.0000 </r>
       <r>     0.7052     0.0000    20.0000 </r>
       <r>     0.7746     0.0000    20.0000 </r>
       <r>     0.8441     0.0000    20.0000 </r>
       <r>     0.9135     0.0000    20.0000 </r>
       <r>     0.9830     0.0000    20.0000 </r>
       <r>     1.0524     0.0000    20.0000 </r>
       <r>     1.1219     0.0000    20.0000 </r>
      </set>
     </set>
    </array>
   </total>
  </dos>
 </calculation>
 <structure name="finalpos" >
  <crystal>
   <varray name="basis" >
    <v>      16.32993162      -8.16496581      -8.16496581 </v>
    <v>       0.00000000      14.14213562     -14.14213562 </v>
    <v>      11.54700538      11.54700538      11.54700538 </v>
   </varray>
   <i name="volume">   8000.00000000 </i>
   <varray name="rec_basis" >
    <v>       0.04082483      -0.02041241      -0.02041241 </v>
    <v>       0.00000000       0.03535534      -0.03535534 </v>
    <v>       0.02886751       0.02886751       0.02886751 </v>
   </varray>
  </crystal>
  <varray name="positions" >
   <v>       0.35573993       0.55232711       0.54409285 </v>
   <v>       0.40140806       0.53582484       0.58977390 </v>
   <v>       0.34641862       0.60435584       0.53029769 </v>
   <v>       0.32570216       0.51457508       0.51848472 </v>
   <v>       0.43147760       0.57363742       0.61526135 </v>
   <v>       0.41069447       0.48382730       0.60371929 </v>
  </varray>
  <varray name="selective"  type="logical" >
   <v type="logical" >  T  T  T </v>
   <v type="logical" >  T  T  T </v>
   <v type="logical" >  T  T  T </v>
   <v type="logical" >  T  T  T </v>
   <v type="logical" >  T  T  T </v>
   <v type="logical" >  T  T  T </v>
  </varray>
  <nose>
   <v>      -3.00000000       0.00000000       0.00010000       0.00010000 </v>
  </nose>
 </structure>
</modeling>
