unknown system                          
           1
    16.329932   -8.164966   -8.164966
     0.000000   14.142136  -14.142136
    11.547005   11.547005   11.547005
   C    H 
   2   4
Direct configuration=     1
   0.35573993  0.55232711  0.54409285
   0.40140806  0.53582484  0.58977390
   0.34641862  0.60435584  0.53029769
   0.32570216  0.51457508  0.51848472
   0.43147760  0.57363742  0.61526135
   0.41069447  0.48382730  0.60371929
