   14   14  200    1
  0.5714286E+03  0.2000000E-08  0.2000000E-08  0.2000000E-08  0.5000000E-15
  1.000000000000000E-004
  CAR 
 unknown system                          
   26    1   21
 
  0.0000000E+00  0.0000000E+00  0.0000000E+00  0.1000000E+01
   1      -19.533893
   2      -17.721036
   3      -15.318980
   4      -13.945007
   5      -11.302228
   6      -10.250003
   7      -10.109888
   8       -9.811484
   9       -8.747393
  10       -8.236765
  11       -7.942791
  12       -7.608068
  13       -7.511827
  14       -0.456165
  15       -0.092619
  16        0.045348
  17        0.078600
  18        0.102419
  19        0.331475
  20        0.340594
  21        0.513539
