<?xml version="1.0" encoding="ISO-8859-1"?>
<modeling>
 <generator>
  <i name="program" type="string">vasp </i>
  <i name="version" type="string">5.3.2  </i>
  <i name="subversion" type="string">13Sep12 (build Oct  1 2014 13:46:58) complex                          parallel </i>
  <i name="platform" type="string">LinuxIFC </i>
  <i name="date" type="string">2015 11 22 </i>
  <i name="time" type="string">18:50:13 </i>
 </generator>
 <incar>
  <i type="int" name="ISTART">     0</i>
  <i type="string" name="PREC">med</i>
  <i type="string" name="ALGO"> Fast</i>
  <i type="int" name="ISPIN">     1</i>
  <i type="int" name="NELM">   400</i>
  <i type="int" name="NELMDL">   -10</i>
  <i type="int" name="IBRION">     1</i>
  <i type="int" name="NFREE">     2</i>
  <i name="EDIFF">      0.00000100</i>
  <i name="EDIFFG">     -0.01000000</i>
  <i type="int" name="NSW">   200</i>
  <i type="int" name="ISIF">     2</i>
  <i type="int" name="ISYM">     0</i>
  <i name="ENCUT">    400.00000000</i>
  <i name="POTIM">      0.50000000</i>
  <i type="string" name="LREAL"> auto</i>
  <v name="ROPT">     -0.00020000     -0.00020000</v>
  <i type="logical" name="LPLANE"> T  </i>
  <i type="int" name="ISMEAR">     1</i>
  <i name="SIGMA">      0.01000000</i>
  <i type="int" name="NWRITE">     1</i>
  <i type="logical" name="LWAVE"> F  </i>
  <i type="logical" name="LCHARG"> F  </i>
  <i type="logical" name="LVTOT"> F  </i>
  <i type="int" name="NELM">   400</i>
  <i type="int" name="VOSKOWN">     1</i>
 </incar>
 <kpoints>
  <generation param="Monkhorst-Pack">
   <v type="int" name="divisions">       1        1        1 </v>
   <v name="usershift">      0.00000000       0.00000000       0.00000000 </v>
   <v name="genvec1">      1.00000000       0.00000000       0.00000000 </v>
   <v name="genvec2">      0.00000000       1.00000000       0.00000000 </v>
   <v name="genvec3">      0.00000000       0.00000000       1.00000000 </v>
   <v name="shift">      0.00000000       0.00000000       0.00000000 </v>
  </generation>
  <varray name="kpointlist" >
   <v>       0.00000000       0.00000000       0.00000000 </v>
  </varray>
  <varray name="weights" >
   <v>       1.00000000 </v>
  </varray>
 </kpoints>
 <parameters>
  <separator name="general" >
   <i type="string" name="SYSTEM">unknown system</i>
   <i type="logical" name="LCOMPAT"> F  </i>
  </separator>
  <separator name="electronic" >
   <i type="string" name="PREC">med</i>
   <i name="ENMAX">    400.00000000</i>
   <i name="ENAUG">    644.87300000</i>
   <i name="EDIFF">      0.00000100</i>
   <i type="int" name="IALGO">    68</i>
   <i type="int" name="IWAVPR">    11</i>
   <i type="int" name="NBANDS">    21</i>
   <i name="NELECT">     26.00000000</i>
   <i type="int" name="TURBO">     0</i>
   <i type="int" name="IRESTART">     0</i>
   <i type="int" name="NREBOOT">     0</i>
   <i type="int" name="NMIN">     0</i>
   <i name="EREF">      0.00000000</i>
   <separator name="electronic smearing" >
    <i type="int" name="ISMEAR">     1</i>
    <i name="SIGMA">      0.01000000</i>
    <i name="KSPACING">      0.50000000</i>
    <i type="logical" name="KGAMMA"> T  </i>
   </separator>
   <separator name="electronic projectors" >
    <i type="logical" name="LREAL"> T  </i>
    <v name="ROPT">     -0.00020000     -0.00020000</v>
    <i type="int" name="LMAXPAW">  -100</i>
    <i type="int" name="LMAXMIX">     2</i>
    <i type="logical" name="NLSPLINE"> F  </i>
   </separator>
   <separator name="electronic startup" >
    <i type="int" name="ISTART">     0</i>
    <i type="int" name="ICHARG">     2</i>
    <i type="int" name="INIWAV">     1</i>
   </separator>
   <separator name="electronic spin" >
    <i type="int" name="ISPIN">     1</i>
    <i type="logical" name="LNONCOLLINEAR"> F  </i>
    <v name="MAGMOM">      1.00000000      1.00000000      1.00000000      1.00000000      1.00000000      1.00000000      1.00000000      1.00000000      1.00000000      1.00000000      1.00000000      1.00000000      1.00000000      1.00000000</v>
    <i name="NUPDOWN">     -1.00000000</i>
    <i type="logical" name="LSORBIT"> F  </i>
    <v name="SAXIS">      0.00000000      0.00000000      1.00000000</v>
    <i type="logical" name="LSPIRAL"> F  </i>
    <v name="QSPIRAL">      0.00000000      0.00000000      0.00000000</v>
    <i type="logical" name="LZEROZ"> F  </i>
   </separator>
   <separator name="electronic exchange-correlation" >
    <i type="logical" name="LASPH"> F  </i>
    <i type="logical" name="LMETAGGA"> F  </i>
   </separator>
   <separator name="electronic convergence" >
    <i type="int" name="NELM">   400</i>
    <i type="int" name="NELMDL">   -10</i>
    <i type="int" name="NELMIN">     2</i>
    <i name="ENINI">    400.00000000</i>
    <separator name="electronic convergence detail" >
     <i type="logical" name="LDIAG"> T  </i>
     <i type="logical" name="LSUBROT"> T  </i>
     <i name="WEIMIN">      0.00100000</i>
     <i name="EBREAK">      0.00000001</i>
     <i name="DEPER">      0.30000000</i>
     <i type="int" name="NRMM">     4</i>
     <i name="TIME">      0.40000000</i>
    </separator>
   </separator>
   <separator name="electronic mixer" >
    <i name="AMIX">      0.40000000</i>
    <i name="BMIX">      1.00000000</i>
    <i name="AMIN">      0.10000000</i>
    <i name="AMIX_MAG">      1.60000000</i>
    <i name="BMIX_MAG">      1.00000000</i>
    <separator name="electronic mixer details" >
     <i type="int" name="IMIX">     4</i>
     <i type="int" name="MAXMIX">   -45</i>
     <i name="WC">    100.00000000</i>
     <i type="int" name="INIMIX">     1</i>
     <i type="int" name="MIXPRE">     1</i>
     <i type="int" name="MREMOVE">     5</i>
    </separator>
   </separator>
   <separator name="electronic dipolcorrection" >
    <i type="logical" name="LDIPOL"> F  </i>
    <i type="logical" name="LMONO"> F  </i>
    <i type="int" name="IDIPOL">     0</i>
    <i name="EPSILON">      1.00000000</i>
    <v name="DIPOL">   -100.00000000   -100.00000000   -100.00000000</v>
    <i name="EFIELD">      0.00000000</i>
   </separator>
  </separator>
  <separator name="grids" >
   <i type="int" name="NGX">    98</i>
   <i type="int" name="NGY">    98</i>
   <i type="int" name="NGZ">    98</i>
   <i type="int" name="NGXF">   168</i>
   <i type="int" name="NGYF">   168</i>
   <i type="int" name="NGZF">   168</i>
   <i type="logical" name="ADDGRID"> F  </i>
  </separator>
  <separator name="ionic" >
   <i type="int" name="NSW">   200</i>
   <i type="int" name="IBRION">     1</i>
   <i type="int" name="ISIF">     2</i>
   <i name="PSTRESS">      0.00000000</i>
   <i name="EDIFFG">     -0.01000000</i>
   <i type="int" name="NFREE">     2</i>
   <i name="POTIM">      0.50000000</i>
   <i name="SMASS">     -3.00000000</i>
   <i name="SCALEE">      1.00000000</i>
  </separator>
  <separator name="ionic md" >
   <i name="TEBEG">      0.00010000</i>
   <i name="TEEND">      0.00010000</i>
   <i type="int" name="NBLOCK">     1</i>
   <i type="int" name="KBLOCK">   200</i>
   <i type="int" name="NPACO">   256</i>
   <i name="APACO">     16.00000000</i>
  </separator>
  <separator name="symmetry" >
   <i type="int" name="ISYM">     0</i>
   <i name="SYMPREC">      0.00001000</i>
  </separator>
  <separator name="dos" >
   <i type="logical" name="LORBIT"> F  </i>
   <v name="RWIGS">     -1.00000000     -1.00000000</v>
   <i type="int" name="NEDOS">   301</i>
   <i name="EMIN">     10.00000000</i>
   <i name="EMAX">    -10.00000000</i>
   <i name="EFERMI">      0.00000000</i>
  </separator>
  <separator name="writing" >
   <i type="int" name="NWRITE">     1</i>
   <i type="logical" name="LWAVE"> F  </i>
   <i type="logical" name="LCHARG"> F  </i>
   <i type="logical" name="LPARD"> F  </i>
   <i type="logical" name="LVTOT"> F  </i>
   <i type="logical" name="LVHAR"> F  </i>
   <i type="logical" name="LELF"> F  </i>
   <i type="logical" name="LOPTICS"> F  </i>
   <v name="STM">      0.00000000      0.00000000      0.00000000      0.00000000      0.00000000      0.00000000      0.00000000</v>
  </separator>
  <separator name="performance" >
   <i type="int" name="NPAR">     1</i>
   <i type="int" name="NSIM">     4</i>
   <i type="int" name="NBLK">    -1</i>
   <i type="logical" name="LPLANE"> T  </i>
   <i type="logical" name="LSCALAPACK"> F  </i>
   <i type="logical" name="LSCAAWARE"> F  </i>
   <i type="logical" name="LSCALU"> F  </i>
   <i type="logical" name="LASYNC"> F  </i>
   <i type="logical" name="LORBITALREAL"> F  </i>
  </separator>
  <separator name="miscellaneous" >
   <i type="int" name="IDIOT">     3</i>
   <i type="logical" name="LMUSIC"> F  </i>
   <v name="POMASS">     12.01100000      1.00000000</v>
   <v name="DARWINR">      0.00000000      0.00000000</v>
   <v name="DARWINV">      1.00000000      1.00000000</v>
   <i type="logical" name="LCORR"> T  </i>
  </separator>
  <i type="logical" name="GGA_COMPAT"> T  </i>
  <i type="logical" name="LBERRY"> F  </i>
  <i type="int" name="ICORELEVEL">     0</i>
  <i type="logical" name="LDAU"> F  </i>
  <i type="int" name="I_CONSTRAINED_M">     0</i>
  <separator name="electronic exchange-correlation" >
   <i type="string" name="GGA">--</i>
   <i type="int" name="VOSKOWN">     1</i>
   <i type="logical" name="LHFCALC"> F  </i>
   <i type="string" name="PRECFOCK"></i>
   <i type="logical" name="LSYMGRAD"> F  </i>
   <i type="logical" name="LHFONE"> F  </i>
   <i type="logical" name="LRHFCALC"> F  </i>
   <i type="logical" name="LTHOMAS"> F  </i>
   <i type="logical" name="LMODELHF"> F  </i>
   <i name="ENCUT4O">     -1.00000000</i>
   <i type="int" name="EXXOEP">     0</i>
   <i type="int" name="FOURORBIT">     0</i>
   <i name="AEXX">      0.00000000</i>
   <i name="HFALPHA">      0.00000000</i>
   <i name="MCALPHA">      0.00000000</i>
   <i name="ALDAX">      1.00000000</i>
   <i name="AGGAX">      1.00000000</i>
   <i name="ALDAC">      1.00000000</i>
   <i name="AGGAC">      1.00000000</i>
   <i type="int" name="NKREDX">     1</i>
   <i type="int" name="NKREDY">     1</i>
   <i type="int" name="NKREDZ">     1</i>
   <i type="logical" name="SHIFTRED"> F  </i>
   <i type="logical" name="ODDONLY"> F  </i>
   <i type="logical" name="EVENONLY"> F  </i>
   <i type="int" name="LMAXFOCK">     0</i>
   <i type="int" name="NMAXFOCKAE">     0</i>
   <i type="logical" name="LFOCKAEDFT"> F  </i>
   <i name="HFSCREEN">      0.00000000</i>
   <i name="HFSCREENC">      0.00000000</i>
   <i type="int" name="NBANDSGWLOW">     0</i>
  </separator>
  <separator name="vdW DFT" >
   <i type="logical" name="LUSE_VDW"> F  </i>
   <i name="Zab_VDW">     -0.84910000</i>
   <i name="PARAM1">      0.12340000</i>
   <i name="PARAM2">      1.00000000</i>
   <i name="PARAM3">      0.00000000</i>
  </separator>
  <separator name="model GW" >
   <i type="int" name="MODEL_GW">     0</i>
   <i name="MODEL_EPS0">    342.85714286</i>
   <i name="MODEL_ALPHA">      1.00000000</i>
  </separator>
  <separator name="linear response parameters" >
   <i type="logical" name="LEPSILON"> F  </i>
   <i type="logical" name="LRPA"> F  </i>
   <i type="logical" name="LNABLA"> F  </i>
   <i type="logical" name="LVEL"> F  </i>
   <i type="int" name="KINTER">     0</i>
   <i name="CSHIFT">      0.10000000</i>
   <i name="OMEGAMAX">     -1.00000000</i>
   <i name="DEG_THRESHOLD">      0.00200000</i>
  </separator>
  <separator name="orbital magnetization" >
   <i type="logical" name="NUCIND"> F  </i>
   <v name="MAGPOS">      0.00000000      0.00000000      0.00000000</v>
   <i type="logical" name="LNICSALL"> T  </i>
   <i type="logical" name="ORBITALMAG"> F  </i>
   <i type="logical" name="LMAGBLOCH"> F  </i>
   <i type="logical" name="LCHIMAG"> F  </i>
   <i type="logical" name="LGAUGE"> T  </i>
   <i type="int" name="MAGATOM">     0</i>
   <v name="MAGDIPOL">      0.00000000      0.00000000      0.00000000</v>
   <v name="AVECCONST">      0.00000000      0.00000000      0.00000000</v>
  </separator>
  <separator name="response functions" >
   <i type="logical" name="LADDER"> F  </i>
   <i type="logical" name="LHARTREE"> T  </i>
   <i type="int" name="IBSE">     0</i>
   <i type="logical" name="LTCTE"> F  </i>
   <i type="logical" name="LTETE"> F  </i>
   <i type="logical" name="LTRIPLET"> F  </i>
   <i type="logical" name="LFXCEPS"> F  </i>
   <i type="logical" name="L2ORDER"> F  </i>
   <i type="logical" name="LUSEW"> F  </i>
   <i name="ENCUTGW">     -2.00000000</i>
   <i name="ENCUTGWSOFT">     -2.00000000</i>
   <i name="ENCUTLF">     -1.00000000</i>
   <i type="int" name="LMAXMP2">    -1</i>
   <i name="SCISSOR">      0.00000000</i>
   <i type="int" name="NOMEGA">     0</i>
   <i type="int" name="NOMEGAR">     0</i>
   <i type="int" name="NBANDSGW">    -1</i>
   <i type="int" name="NBANDSO">    -1</i>
   <i type="int" name="NBANDSV">    -1</i>
   <i type="int" name="NELM">   400</i>
   <i type="int" name="DIM">     3</i>
   <i type="int" name="ANTIRES">     0</i>
   <i name="OMEGAMAX">    -30.00000000</i>
   <i name="OMEGATL">   -200.00000000</i>
   <i type="int" name="OMEGAGRID">     0</i>
   <i name="CSHIFT">     -0.10000000</i>
   <i type="logical" name="SELFENERGY"> F  </i>
   <i type="logical" name="LSPECTRAL"> F  </i>
   <i type="logical" name="ODDONLYGW"> F  </i>
   <i type="logical" name="EVENONLYGW"> F  </i>
   <i type="int" name="NKREDLFX">     1</i>
   <i type="int" name="NKREDLFY">     1</i>
   <i type="int" name="NKREDLFZ">     1</i>
   <i type="int" name="MAXMEM">  1800</i>
   <i type="int" name="TELESCOPE">     0</i>
  </separator>
 </parameters>
 <atominfo>
  <atoms>      14 </atoms>
  <types>       2 </types>
  <array name="atoms" >
   <dimension dim="1">ion</dimension>
   <field type="string">element</field>
   <field type="int">atomtype</field>
   <set>
    <rc><c>C </c><c>   1</c></rc>
    <rc><c>C </c><c>   1</c></rc>
    <rc><c>C </c><c>   1</c></rc>
    <rc><c>C </c><c>   1</c></rc>
    <rc><c>H </c><c>   2</c></rc>
    <rc><c>H </c><c>   2</c></rc>
    <rc><c>H </c><c>   2</c></rc>
    <rc><c>H </c><c>   2</c></rc>
    <rc><c>H </c><c>   2</c></rc>
    <rc><c>H </c><c>   2</c></rc>
    <rc><c>H </c><c>   2</c></rc>
    <rc><c>H </c><c>   2</c></rc>
    <rc><c>H </c><c>   2</c></rc>
    <rc><c>H </c><c>   2</c></rc>
   </set>
  </array>
  <array name="atomtypes" >
   <dimension dim="1">type</dimension>
   <field type="int">atomspertype</field>
   <field type="string">element</field>
   <field>mass</field>
   <field>valence</field>
   <field type="string">pseudopotential</field>
   <set>
    <rc><c>   4</c><c>C </c><c>     12.01100000</c><c>      4.00000000</c><c>  PAW_PBE C 08Apr2002                   </c></rc>
    <rc><c>  10</c><c>H </c><c>      1.00000000</c><c>      1.00000000</c><c>  PAW_PBE H 15Jun2001                   </c></rc>
   </set>
  </array>
 </atominfo>
 <structure name="initialpos" >
  <crystal>
   <varray name="basis" >
    <v>      16.32993162      -8.16496581      -8.16496581 </v>
    <v>       0.00000000      14.14213562     -14.14213562 </v>
    <v>      11.54700538      11.54700538      11.54700538 </v>
   </varray>
   <i name="volume">   8000.00000000 </i>
   <varray name="rec_basis" >
    <v>       0.04082483      -0.02041241      -0.02041241 </v>
    <v>       0.00000000       0.03535534      -0.03535534 </v>
    <v>       0.02886751       0.02886751       0.02886751 </v>
   </varray>
  </crystal>
  <varray name="positions" >
   <v>       0.41870825       0.53427708       0.62912641 </v>
   <v>       0.38363765       0.46909449       0.64807555 </v>
   <v>       0.46161280       0.56276961       0.68570615 </v>
   <v>       0.49780703       0.62735829       0.66687026 </v>
   <v>       0.45042416       0.52610444       0.58465722 </v>
   <v>       0.35163261       0.45050022       0.60738335 </v>
   <v>       0.35182584       0.47594773       0.69251971 </v>
   <v>       0.42019981       0.42964306       0.65995316 </v>
   <v>       0.49847591       0.52469940       0.70128279 </v>
   <v>       0.42954466       0.57161419       0.72979170 </v>
   <v>       0.52813792       0.64654236       0.70857656 </v>
   <v>       0.46207638       0.66681684       0.65272006 </v>
   <v>       0.53148340       0.61948458       0.62400851 </v>
   <v>       0.38120043       0.57196248       0.61417626 </v>
  </varray>
  <varray name="selective"  type="logical" >
   <v type="logical" >  T  T  T </v>
   <v type="logical" >  T  T  T </v>
   <v type="logical" >  T  T  T </v>
   <v type="logical" >  T  T  T </v>
   <v type="logical" >  T  T  T </v>
   <v type="logical" >  T  T  T </v>
   <v type="logical" >  T  T  T </v>
   <v type="logical" >  T  T  T </v>
   <v type="logical" >  T  T  T </v>
   <v type="logical" >  T  T  T </v>
   <v type="logical" >  T  T  T </v>
   <v type="logical" >  T  T  T </v>
   <v type="logical" >  T  T  T </v>
   <v type="logical" >  T  T  T </v>
  </varray>
  <nose>
   <v>      -3.00000000       0.00000000       0.00010000       0.00010000 </v>
  </nose>
 </structure>
 <calculation>
  <scstep>
   <time name="dav">    1.29    1.35</time>
   <time name="total">    1.81    1.88</time>
   <energy>
    <i name="alphaZ">      0.34615227 </i>
    <i name="ewald">   1411.05314417 </i>
    <i name="hartreedc">  -1842.39337282 </i>
    <i name="XCdc">     75.68265534 </i>
    <i name="pawpsdc">    455.42845988 </i>
    <i name="pawaedc">   -457.79486096 </i>
    <i name="eentropy">      0.00000000 </i>
    <i name="bandstr">   -205.10399555 </i>
    <i name="atom">    713.29522214 </i>
    <i name="e_fr_energy">    150.51340447 </i>
    <i name="e_wo_entrp">    150.51340447 </i>
    <i name="e_0_energy">    150.51340447 </i>
   </energy>
  </scstep>
  <scstep>
   <time name="dav">    5.59    6.45</time>
   <time name="total">    5.59    6.53</time>
   <energy>
    <i name="e_fr_energy">      7.88278705 </i>
    <i name="e_wo_entrp">      7.88278705 </i>
    <i name="e_0_energy">      7.88278705 </i>
   </energy>
  </scstep>
  <scstep>
   <time name="dav">    1.08    1.08</time>
   <time name="total">    1.08    1.11</time>
   <energy>
    <i name="e_fr_energy">    -68.61501230 </i>
    <i name="e_wo_entrp">    -68.61501230 </i>
    <i name="e_0_energy">    -68.61501230 </i>
   </energy>
  </scstep>
  <scstep>
   <time name="dav">    1.08    1.08</time>
   <time name="total">    1.08    1.10</time>
   <energy>
    <i name="e_fr_energy">    -81.94539337 </i>
    <i name="e_wo_entrp">    -81.94597316 </i>
    <i name="e_0_energy">    -81.94558663 </i>
   </energy>
  </scstep>
  <scstep>
   <time name="dav">    1.36    1.36</time>
   <time name="total">    1.36    1.38</time>
   <energy>
    <i name="e_fr_energy">    -82.43680330 </i>
    <i name="e_wo_entrp">    -82.43738309 </i>
    <i name="e_0_energy">    -82.43699657 </i>
   </energy>
  </scstep>
  <scstep>
   <time name="dav">    1.22    1.22</time>
   <time name="total">    1.22    1.24</time>
   <energy>
    <i name="e_fr_energy">    -82.43798528 </i>
    <i name="e_wo_entrp">    -82.43856507 </i>
    <i name="e_0_energy">    -82.43817854 </i>
   </energy>
  </scstep>
  <scstep>
   <time name="dav">    1.50    1.50</time>
   <time name="total">    1.50    1.52</time>
   <energy>
    <i name="e_fr_energy">    -82.43803352 </i>
    <i name="e_wo_entrp">    -82.43861331 </i>
    <i name="e_0_energy">    -82.43822678 </i>
   </energy>
  </scstep>
  <scstep>
   <time name="dav">    1.22    1.22</time>
   <time name="total">    1.22    1.24</time>
   <energy>
    <i name="e_fr_energy">    -82.43803365 </i>
    <i name="e_wo_entrp">    -82.43861344 </i>
    <i name="e_0_energy">    -82.43822691 </i>
   </energy>
  </scstep>
  <scstep>
   <time name="dav">    1.22    1.22</time>
   <time name="total">    1.22    1.25</time>
   <energy>
    <i name="e_fr_energy">    -82.43803365 </i>
    <i name="e_wo_entrp">    -82.43861344 </i>
    <i name="e_0_energy">    -82.43822691 </i>
   </energy>
  </scstep>
  <scstep>
   <time name="dav">    1.08    1.09</time>
   <time name="total">    1.19    1.21</time>
   <energy>
    <i name="e_fr_energy">    -82.43803365 </i>
    <i name="e_wo_entrp">    -82.43861344 </i>
    <i name="e_0_energy">    -82.43822691 </i>
   </energy>
  </scstep>
  <scstep>
   <time name="diag">    0.13    0.13</time>
   <time name="diis">    0.73    0.73</time>
   <time name="orth">    0.01    0.01</time>
   <time name="total">    1.47    1.50</time>
   <energy>
    <i name="e_fr_energy">    -75.45129440 </i>
    <i name="e_wo_entrp">    -75.45187419 </i>
    <i name="e_0_energy">    -75.45148766 </i>
   </energy>
  </scstep>
  <scstep>
   <time name="diag">    0.12    0.13</time>
   <time name="diis">    0.73    0.73</time>
   <time name="orth">    0.01    0.01</time>
   <time name="total">    1.47    1.49</time>
   <energy>
    <i name="e_fr_energy">    -73.87426461 </i>
    <i name="e_wo_entrp">    -73.87426461 </i>
    <i name="e_0_energy">    -73.87426461 </i>
   </energy>
  </scstep>
  <scstep>
   <time name="diag">    0.12    0.12</time>
   <time name="diis">    0.73    0.73</time>
   <time name="orth">    0.01    0.01</time>
   <time name="total">    1.48    1.50</time>
   <energy>
    <i name="e_fr_energy">    -73.55747372 </i>
    <i name="e_wo_entrp">    -73.55805351 </i>
    <i name="e_0_energy">    -73.55766698 </i>
   </energy>
  </scstep>
  <scstep>
   <time name="diag">    0.12    0.12</time>
   <time name="diis">    0.75    0.75</time>
   <time name="orth">    0.01    0.01</time>
   <time name="total">    1.50    1.52</time>
   <energy>
    <i name="e_fr_energy">    -73.53439446 </i>
    <i name="e_wo_entrp">    -73.53497425 </i>
    <i name="e_0_energy">    -73.53458772 </i>
   </energy>
  </scstep>
  <scstep>
   <time name="diag">    0.13    0.13</time>
   <time name="diis">    0.73    0.73</time>
   <time name="orth">    0.01    0.01</time>
   <time name="total">    1.48    1.50</time>
   <energy>
    <i name="e_fr_energy">    -73.52546286 </i>
    <i name="e_wo_entrp">    -73.52546286 </i>
    <i name="e_0_energy">    -73.52546286 </i>
   </energy>
  </scstep>
  <scstep>
   <time name="diag">    0.12    0.13</time>
   <time name="diis">    0.73    0.73</time>
   <time name="orth">    0.01    0.01</time>
   <time name="total">    1.48    1.50</time>
   <energy>
    <i name="e_fr_energy">    -73.52646102 </i>
    <i name="e_wo_entrp">    -73.52704081 </i>
    <i name="e_0_energy">    -73.52665428 </i>
   </energy>
  </scstep>
  <scstep>
   <time name="diag">    0.13    0.13</time>
   <time name="diis">    0.73    0.73</time>
   <time name="orth">    0.01    0.01</time>
   <time name="total">    1.62    1.72</time>
   <energy>
    <i name="e_fr_energy">    -73.52815341 </i>
    <i name="e_wo_entrp">    -73.52815341 </i>
    <i name="e_0_energy">    -73.52815341 </i>
   </energy>
  </scstep>
  <scstep>
   <time name="diag">    0.12    0.12</time>
   <time name="diis">    0.75    0.75</time>
   <time name="orth">    0.01    0.01</time>
   <time name="total">    1.51    1.53</time>
   <energy>
    <i name="e_fr_energy">    -73.53726910 </i>
    <i name="e_wo_entrp">    -73.53784889 </i>
    <i name="e_0_energy">    -73.53746237 </i>
   </energy>
  </scstep>
  <scstep>
   <time name="diag">    0.13    0.13</time>
   <time name="diis">    0.73    0.73</time>
   <time name="orth">    0.01    0.01</time>
   <time name="total">    1.49    1.52</time>
   <energy>
    <i name="e_fr_energy">    -73.54066330 </i>
    <i name="e_wo_entrp">    -73.54124309 </i>
    <i name="e_0_energy">    -73.54085657 </i>
   </energy>
  </scstep>
  <scstep>
   <time name="diag">    0.13    0.13</time>
   <time name="diis">    0.73    0.73</time>
   <time name="orth">    0.01    0.01</time>
   <time name="total">    1.49    1.52</time>
   <energy>
    <i name="e_fr_energy">    -73.54627078 </i>
    <i name="e_wo_entrp">    -73.54685057 </i>
    <i name="e_0_energy">    -73.54646404 </i>
   </energy>
  </scstep>
  <scstep>
   <time name="diag">    0.12    0.12</time>
   <time name="diis">    0.73    0.73</time>
   <time name="orth">    0.01    0.01</time>
   <time name="total">    1.49    1.51</time>
   <energy>
    <i name="e_fr_energy">    -73.54627280 </i>
    <i name="e_wo_entrp">    -73.54685259 </i>
    <i name="e_0_energy">    -73.54646606 </i>
   </energy>
  </scstep>
  <scstep>
   <time name="diag">    0.13    0.13</time>
   <time name="diis">    0.79    0.79</time>
   <time name="orth">    0.01    0.01</time>
   <time name="total">    1.55    1.57</time>
   <energy>
    <i name="e_fr_energy">    -73.54811133 </i>
    <i name="e_wo_entrp">    -73.54811133 </i>
    <i name="e_0_energy">    -73.54811133 </i>
   </energy>
  </scstep>
  <scstep>
   <time name="diag">    0.13    0.13</time>
   <time name="diis">    0.75    0.75</time>
   <time name="orth">    0.01    0.01</time>
   <time name="total">    1.51    1.54</time>
   <energy>
    <i name="e_fr_energy">    -73.54821684 </i>
    <i name="e_wo_entrp">    -73.54821684 </i>
    <i name="e_0_energy">    -73.54821684 </i>
   </energy>
  </scstep>
  <scstep>
   <time name="diag">    0.12    0.12</time>
   <time name="diis">    0.73    0.73</time>
   <time name="orth">    0.01    0.01</time>
   <time name="total">    1.49    1.52</time>
   <energy>
    <i name="e_fr_energy">    -73.54845399 </i>
    <i name="e_wo_entrp">    -73.54845399 </i>
    <i name="e_0_energy">    -73.54845399 </i>
   </energy>
  </scstep>
  <scstep>
   <time name="diag">    0.12    0.12</time>
   <time name="diis">    0.79    0.79</time>
   <time name="orth">    0.01    0.01</time>
   <time name="total">    1.56    1.58</time>
   <energy>
    <i name="e_fr_energy">    -73.54850589 </i>
    <i name="e_wo_entrp">    -73.54850589 </i>
    <i name="e_0_energy">    -73.54850589 </i>
   </energy>
  </scstep>
  <scstep>
   <time name="diag">    0.12    0.13</time>
   <time name="diis">    0.72    0.72</time>
   <time name="orth">    0.01    0.01</time>
   <time name="total">    1.49    1.52</time>
   <energy>
    <i name="e_fr_energy">    -73.54797608 </i>
    <i name="e_wo_entrp">    -73.54855587 </i>
    <i name="e_0_energy">    -73.54816934 </i>
   </energy>
  </scstep>
  <scstep>
   <time name="diag">    0.13    0.12</time>
   <time name="diis">    0.64    0.64</time>
   <time name="orth">    0.01    0.01</time>
   <time name="total">    1.41    1.44</time>
   <energy>
    <i name="e_fr_energy">    -73.54798682 </i>
    <i name="e_wo_entrp">    -73.54856661 </i>
    <i name="e_0_energy">    -73.54818008 </i>
   </energy>
  </scstep>
  <scstep>
   <time name="diag">    0.13    0.13</time>
   <time name="diis">    0.53    0.53</time>
   <time name="orth">    0.01    0.01</time>
   <time name="total">    1.30    1.33</time>
   <energy>
    <i name="e_fr_energy">    -73.54799424 </i>
    <i name="e_wo_entrp">    -73.54857403 </i>
    <i name="e_0_energy">    -73.54818751 </i>
   </energy>
  </scstep>
  <scstep>
   <time name="diag">    0.13    0.13</time>
   <time name="diis">    0.52    0.52</time>
   <time name="orth">    0.01    0.01</time>
   <time name="total">    1.31    1.33</time>
   <energy>
    <i name="e_fr_energy">    -73.54799715 </i>
    <i name="e_wo_entrp">    -73.54857694 </i>
    <i name="e_0_energy">    -73.54819041 </i>
   </energy>
  </scstep>
  <scstep>
   <time name="diag">    0.12    0.12</time>
   <time name="diis">    0.51    0.52</time>
   <time name="orth">    0.01    0.01</time>
   <time name="total">    1.30    1.33</time>
   <energy>
    <i name="e_fr_energy">    -73.54799823 </i>
    <i name="e_wo_entrp">    -73.54857802 </i>
    <i name="e_0_energy">    -73.54819149 </i>
   </energy>
  </scstep>
  <scstep>
   <time name="diag">    0.12    0.13</time>
   <time name="diis">    0.42    0.43</time>
   <time name="orth">    0.01    0.01</time>
   <time name="total">    1.07    1.09</time>
   <energy>
    <i name="alphaZ">      0.34615227 </i>
    <i name="ewald">   1411.05314417 </i>
    <i name="hartreedc">  -1982.19042935 </i>
    <i name="XCdc">     82.97350483 </i>
    <i name="pawpsdc">   1740.10590505 </i>
    <i name="pawaedc">  -1743.05335233 </i>
    <i name="eentropy">      0.00057979 </i>
    <i name="bandstr">   -296.07872541 </i>
    <i name="atom">    713.29522214 </i>
    <i name="e_fr_energy">    -73.54799885 </i>
    <i name="e_wo_entrp">    -73.54857864 </i>
    <i name="e_0_energy">    -73.54819211 </i>
   </energy>
  </scstep>
  <structure>
   <crystal>
    <varray name="basis" >
     <v>      16.32993162      -8.16496581      -8.16496581 </v>
     <v>       0.00000000      14.14213562     -14.14213562 </v>
     <v>      11.54700538      11.54700538      11.54700538 </v>
    </varray>
    <i name="volume">   8000.00000000 </i>
    <varray name="rec_basis" >
     <v>       0.04082483      -0.02041241      -0.02041241 </v>
     <v>       0.00000000       0.03535534      -0.03535534 </v>
     <v>       0.02886751       0.02886751       0.02886751 </v>
    </varray>
   </crystal>
   <varray name="positions" >
    <v>       0.41870825       0.53427708       0.62912641 </v>
    <v>       0.38363765       0.46909449       0.64807555 </v>
    <v>       0.46161280       0.56276961       0.68570615 </v>
    <v>       0.49780703       0.62735829       0.66687026 </v>
    <v>       0.45042416       0.52610444       0.58465722 </v>
    <v>       0.35163261       0.45050022       0.60738335 </v>
    <v>       0.35182584       0.47594773       0.69251971 </v>
    <v>       0.42019981       0.42964306       0.65995316 </v>
    <v>       0.49847591       0.52469940       0.70128279 </v>
    <v>       0.42954466       0.57161419       0.72979170 </v>
    <v>       0.52813792       0.64654236       0.70857656 </v>
    <v>       0.46207638       0.66681684       0.65272006 </v>
    <v>       0.53148340       0.61948458       0.62400851 </v>
    <v>       0.38120043       0.57196248       0.61417626 </v>
   </varray>
  </structure>
  <varray name="forces" >
   <v>       0.00118026       0.00396536       0.00344473 </v>
   <v>       0.00111889      -0.00182526      -0.00164846 </v>
   <v>       0.00317612      -0.00372240       0.00036575 </v>
   <v>       0.00263350       0.00418523       0.00176967 </v>
   <v>       0.00149229       0.00004035      -0.00088419 </v>
   <v>       0.00012928      -0.00573509      -0.00447051 </v>
   <v>      -0.00944593       0.00125033       0.00056801 </v>
   <v>      -0.00000055       0.00468938       0.00304260 </v>
   <v>       0.00144463      -0.00065923      -0.00172141 </v>
   <v>       0.00458318       0.00077963       0.00220551 </v>
   <v>      -0.00336399      -0.00128239      -0.00359327 </v>
   <v>      -0.00310523      -0.00065721       0.00167542 </v>
   <v>      -0.00295776      -0.00278132      -0.00136533 </v>
   <v>       0.00311531       0.00175263       0.00061148 </v>
  </varray>
  <varray name="stress" >
   <v>      -0.22556093      -0.00324174       0.00214656 </v>
   <v>      -0.00324173      -0.22247740       0.00367369 </v>
   <v>       0.00214656       0.00367369      -0.22419763 </v>
  </varray>
  <energy>
   <i name="e_fr_energy">    -73.65496539 </i>
   <i name="e_wo_entrp">    -73.65515866 </i>
   <i name="e_0_energy">      0.00057979 </i>
  </energy>
  <time name="totalsc">   50.32   52.16</time>
  <eigenvalues>
   <array>
    <dimension dim="1">band</dimension>
    <dimension dim="2">kpoint</dimension>
    <dimension dim="3">spin</dimension>
    <field>eigene</field>
    <field>occ</field>
    <set>
     <set comment="spin 1">
      <set comment="kpoint 1">
       <r>  -19.5339    1.0000 </r>
       <r>  -17.7210    1.0000 </r>
       <r>  -15.3190    1.0000 </r>
       <r>  -13.9450    1.0000 </r>
       <r>  -11.3022    1.0000 </r>
       <r>  -10.2500    1.0000 </r>
       <r>  -10.1099    1.0000 </r>
       <r>   -9.8115    1.0000 </r>
       <r>   -8.7474    1.0000 </r>
       <r>   -8.2368    1.0000 </r>
       <r>   -7.9428    1.0000 </r>
       <r>   -7.6081    1.0000 </r>
       <r>   -7.5118    1.0000 </r>
       <r>   -0.4562    0.0000 </r>
       <r>   -0.0926    0.0000 </r>
       <r>    0.0453    0.0000 </r>
       <r>    0.0786    0.0000 </r>
       <r>    0.1024    0.0000 </r>
       <r>    0.3315    0.0000 </r>
       <r>    0.3406    0.0000 </r>
       <r>    0.5135    0.0000 </r>
      </set>
     </set>
    </set>
   </array>
  </eigenvalues>
  <separator name="orbital magnetization" >
   <v name="MAGDIPOLOUT">      0.00000000      0.00000000      0.00000000</v>
  </separator>
 </calculation>
 <structure name="finalpos" >
  <crystal>
   <varray name="basis" >
    <v>      16.32993162      -8.16496581      -8.16496581 </v>
    <v>       0.00000000      14.14213562     -14.14213562 </v>
    <v>      11.54700538      11.54700538      11.54700538 </v>
   </varray>
   <i name="volume">   8000.00000000 </i>
   <varray name="rec_basis" >
    <v>       0.04082483      -0.02041241      -0.02041241 </v>
    <v>       0.00000000       0.03535534      -0.03535534 </v>
    <v>       0.02886751       0.02886751       0.02886751 </v>
   </varray>
  </crystal>
  <varray name="positions" >
   <v>       0.41870825       0.53427708       0.62912641 </v>
   <v>       0.38363765       0.46909449       0.64807555 </v>
   <v>       0.46161280       0.56276961       0.68570615 </v>
   <v>       0.49780703       0.62735829       0.66687026 </v>
   <v>       0.45042416       0.52610444       0.58465722 </v>
   <v>       0.35163261       0.45050022       0.60738335 </v>
   <v>       0.35182584       0.47594773       0.69251971 </v>
   <v>       0.42019981       0.42964306       0.65995316 </v>
   <v>       0.49847591       0.52469940       0.70128279 </v>
   <v>       0.42954466       0.57161419       0.72979170 </v>
   <v>       0.52813792       0.64654236       0.70857656 </v>
   <v>       0.46207638       0.66681684       0.65272006 </v>
   <v>       0.53148340       0.61948458       0.62400851 </v>
   <v>       0.38120043       0.57196248       0.61417626 </v>
  </varray>
  <varray name="selective"  type="logical" >
   <v type="logical" >  T  T  T </v>
   <v type="logical" >  T  T  T </v>
   <v type="logical" >  T  T  T </v>
   <v type="logical" >  T  T  T </v>
   <v type="logical" >  T  T  T </v>
   <v type="logical" >  T  T  T </v>
   <v type="logical" >  T  T  T </v>
   <v type="logical" >  T  T  T </v>
   <v type="logical" >  T  T  T </v>
   <v type="logical" >  T  T  T </v>
   <v type="logical" >  T  T  T </v>
   <v type="logical" >  T  T  T </v>
   <v type="logical" >  T  T  T </v>
   <v type="logical" >  T  T  T </v>
  </varray>
  <nose>
   <v>      -3.00000000       0.00000000       0.00010000       0.00010000 </v>
  </nose>
 </structure>
</modeling>
