       N       E                     dE             d eps       ncg     rms          rms(c)
DAV:   1     0.412282163007E+01    0.41228E+01   -0.14183E+03    32   0.312E+02

DAV:   2    -0.263802877656E+02   -0.30503E+02   -0.30503E+02    24   0.101E+02

DAV:   3    -0.276980108423E+02   -0.13177E+01   -0.13177E+01    24   0.240E+01

DAV:   4    -0.277046596159E+02   -0.66488E-02   -0.66488E-02    32   0.148E+00

DAV:   5    -0.277046617966E+02   -0.21807E-05   -0.21804E-05    32   0.287E-02    0.855E+00
RMM:   6    -0.247572084296E+02    0.29475E+01   -0.54917E+00    16   0.144E+01    0.384E+00
RMM:   7    -0.242771813208E+02    0.48003E+00   -0.11473E+00    16   0.625E+00    0.197E+00
RMM:   8    -0.241073411450E+02    0.16984E+00   -0.16797E-01    16   0.281E+00    0.197E-01
RMM:   9    -0.240974039577E+02    0.99372E-02   -0.14874E-02    16   0.797E-01    0.152E-01
RMM:  10    -0.240905397803E+02    0.68642E-02   -0.23557E-02    16   0.102E+00    0.153E-01
RMM:  11    -0.240919384048E+02   -0.13986E-02   -0.58586E-03    16   0.512E-01    0.126E-01
RMM:  12    -0.240989473491E+02   -0.70089E-02   -0.26110E-03    16   0.537E-01    0.314E-02
RMM:  13    -0.241017588979E+02   -0.28115E-02   -0.18636E-03    16   0.301E-01    0.329E-02
RMM:  14    -0.241032793301E+02   -0.15204E-02   -0.91214E-04    16   0.203E-01    0.848E-03
RMM:  15    -0.241037666144E+02   -0.48728E-03   -0.92404E-05    16   0.562E-02    0.297E-03
RMM:  16    -0.241039191192E+02   -0.15250E-03   -0.13050E-05    16   0.261E-02    0.335E-03
RMM:  17    -0.241040796362E+02   -0.16052E-03   -0.14065E-05    15   0.262E-02    0.207E-03
RMM:  18    -0.241041120252E+02   -0.32389E-04   -0.35045E-06    15   0.128E-02    0.218E-03
RMM:  19    -0.241041369057E+02   -0.24880E-04   -0.72143E-07    12   0.926E-03    0.986E-04
RMM:  20    -0.241041401073E+02   -0.32016E-05   -0.84708E-07    12   0.614E-03    0.643E-04
RMM:  21    -0.241041417496E+02   -0.16423E-05   -0.84169E-08    12   0.307E-03    0.291E-04
RMM:  22    -0.241041418285E+02   -0.78887E-07    0.00000E+00     8   0.115E-03

   1 F= -.24104142E+02 E0= -.24104142E+02  d E =-.241041E+02
       N       E                     dE             d eps       ncg     rms          rms(c)
DAV:   1    -0.241093539564E+02   -0.52122E-02   -0.13107E+00    16   0.107E+01    0.250E-01
RMM:   2    -0.241094283670E+02   -0.74411E-04   -0.13687E-02    16   0.995E-01    0.177E-01
RMM:   3    -0.241089495765E+02    0.47879E-03   -0.54323E-03    16   0.484E-01    0.552E-02
RMM:   4    -0.241088154758E+02    0.13410E-03   -0.30856E-04    16   0.130E-01    0.175E-02
RMM:   5    -0.241088405947E+02   -0.25119E-04   -0.21192E-04    16   0.910E-02    0.158E-02
RMM:   6    -0.241088296875E+02    0.10907E-04   -0.17893E-05    16   0.271E-02    0.661E-03
RMM:   7    -0.241088463596E+02   -0.16672E-04   -0.60722E-05    16   0.463E-02    0.866E-03
RMM:   8    -0.241088421081E+02    0.42515E-05   -0.43841E-06    16   0.135E-02    0.364E-03
RMM:   9    -0.241088475527E+02   -0.54446E-05   -0.11920E-05    16   0.205E-02    0.274E-03
RMM:  10    -0.241088494107E+02   -0.18580E-05   -0.81273E-07    12   0.703E-03    0.205E-03
RMM:  11    -0.241088509616E+02   -0.15509E-05   -0.16523E-06    12   0.803E-03    0.312E-04
RMM:  12    -0.241088514224E+02   -0.46085E-06   -0.26063E-07    12   0.387E-03

   2 F= -.24108851E+02 E0= -.24108851E+02  d E =-.470959E-02
       N       E                     dE             d eps       ncg     rms          rms(c)
DAV:   1    -0.241122624616E+02   -0.34115E-02   -0.20616E-01    16   0.422E+00    0.101E-01
RMM:   2    -0.241122426885E+02    0.19773E-04   -0.19101E-03    16   0.382E-01    0.684E-02
RMM:   3    -0.241121841546E+02    0.58534E-04   -0.94432E-04    16   0.198E-01    0.258E-02
RMM:   4    -0.241121567430E+02    0.27412E-04   -0.53030E-05    16   0.546E-02    0.690E-03
RMM:   5    -0.241121613077E+02   -0.45647E-05   -0.45482E-05    16   0.416E-02    0.659E-03
RMM:   6    -0.241121590350E+02    0.22728E-05   -0.64890E-06    16   0.156E-02    0.161E-03
RMM:   7    -0.241121622773E+02   -0.32423E-05   -0.76130E-06    16   0.172E-02    0.405E-03
RMM:   8    -0.241121612764E+02    0.10009E-05   -0.13716E-06    12   0.766E-03    0.123E-03
RMM:   9    -0.241121619511E+02   -0.67475E-06   -0.85000E-07    12   0.702E-03

   3 F= -.24112162E+02 E0= -.24112162E+02  d E =-.802012E-02
       N       E                     dE             d eps       ncg     rms          rms(c)
DAV:   1    -0.241147668797E+02   -0.26056E-02   -0.31063E-02    16   0.187E+00    0.579E-02
RMM:   2    -0.241147182392E+02    0.48641E-04   -0.39637E-04    16   0.165E-01    0.323E-02
RMM:   3    -0.241147059304E+02    0.12309E-04   -0.20180E-04    16   0.872E-02    0.111E-02
RMM:   4    -0.241147025137E+02    0.34168E-05   -0.91993E-06    16   0.222E-02    0.629E-03
RMM:   5    -0.241147027695E+02   -0.25584E-06   -0.13252E-05    16   0.229E-02    0.466E-03
RMM:   6    -0.241147022454E+02    0.52407E-06   -0.20662E-06    12   0.936E-03

   4 F= -.24114702E+02 E0= -.24114702E+02  d E =-.254029E-02
       N       E                     dE             d eps       ncg     rms          rms(c)
DAV:   1    -0.241163799780E+02   -0.16772E-02   -0.10157E-01    16   0.337E+00    0.106E-01
RMM:   2    -0.241162046989E+02    0.17528E-03   -0.13197E-03    16   0.294E-01    0.580E-02
RMM:   3    -0.241161700187E+02    0.34680E-04   -0.65797E-04    16   0.156E-01    0.200E-02
RMM:   4    -0.241161592318E+02    0.10787E-04   -0.28129E-05    16   0.393E-02    0.112E-02
RMM:   5    -0.241161616519E+02   -0.24201E-05   -0.42457E-05    16   0.408E-02    0.833E-03
RMM:   6    -0.241161606884E+02    0.96355E-06   -0.95311E-06    16   0.181E-02

   5 F= -.24116161E+02 E0= -.24116161E+02  d E =-.399874E-02
       N       E                     dE             d eps       ncg     rms          rms(c)
DAV:   1    -0.241162059465E+02   -0.44295E-04   -0.17444E-03    16   0.437E-01    0.143E-02
RMM:   2    -0.241162044352E+02    0.15113E-05   -0.22695E-05    16   0.403E-02    0.775E-03
RMM:   3    -0.241162066068E+02   -0.21717E-05   -0.14413E-05    16   0.230E-02    0.274E-03
RMM:   4    -0.241162069137E+02   -0.30687E-06   -0.55678E-07    12   0.605E-03

   6 F= -.24116207E+02 E0= -.24116207E+02  d E =-.404496E-02
       N       E                     dE             d eps       ncg     rms          rms(c)
DAV:   1    -0.241171418552E+02   -0.93525E-03   -0.24123E-02    16   0.156E+00    0.520E-02
RMM:   2    -0.241170794933E+02    0.62362E-04   -0.20762E-04    16   0.122E-01    0.264E-02
RMM:   3    -0.241170724719E+02    0.70214E-05   -0.21666E-04    16   0.852E-02    0.110E-02
RMM:   4    -0.241170690519E+02    0.34199E-05   -0.50400E-06    16   0.173E-02    0.685E-03
RMM:   5    -0.241170735318E+02   -0.44798E-05   -0.44393E-05    16   0.395E-02    0.856E-03
RMM:   6    -0.241170704167E+02    0.31151E-05   -0.62911E-06    16   0.148E-02    0.258E-03
RMM:   7    -0.241170715431E+02   -0.11264E-05   -0.36017E-06    15   0.120E-02    0.782E-04
RMM:   8    -0.241170724061E+02   -0.86303E-06   -0.42468E-07    12   0.561E-03

   7 F= -.24117072E+02 E0= -.24117072E+02  d E =-.865492E-03

