   17   17  200    1
  0.4705882E+03  0.2000000E-08  0.2000000E-08  0.2000000E-08  0.5000000E-15
  1.000000000000000E-004
  CAR 
 unknown system                          
   32    1   25
 
  0.0000000E+00  0.0000000E+00  0.0000000E+00  0.1000000E+01
   1      -19.692951
   2      -18.356359
   3      -16.480459
   4      -14.520057
   5      -13.915294
   6      -11.427266
   7      -10.529451
   8      -10.316625
   9       -9.740408
  10       -9.330378
  11       -8.986153
  12       -8.356411
  13       -7.796848
  14       -7.717288
  15       -7.463046
  16       -7.370849
  17       -0.467485
  18       -0.136249
  19       -0.037779
  20        0.030793
  21        0.080660
  22        0.285832
  23        0.296094
  24        0.464448
  25        0.513507
