<?xml version="1.0" encoding="ISO-8859-1"?>
<modeling>
 <generator>
  <i name="program" type="string">vasp </i>
  <i name="version" type="string">5.3.2  </i>
  <i name="subversion" type="string">13Sep12 (build Oct  1 2014 13:46:58) complex                          parallel </i>
  <i name="platform" type="string">LinuxIFC </i>
  <i name="date" type="string">2015 11 22 </i>
  <i name="time" type="string">18:50:13 </i>
 </generator>
 <incar>
  <i type="int" name="ISTART">     0</i>
  <i type="string" name="PREC">med</i>
  <i type="string" name="ALGO"> Fast</i>
  <i type="int" name="ISPIN">     1</i>
  <i type="int" name="NELM">   400</i>
  <i type="int" name="NELMDL">   -10</i>
  <i type="int" name="IBRION">     1</i>
  <i type="int" name="NFREE">     2</i>
  <i name="EDIFF">      0.00000100</i>
  <i name="EDIFFG">     -0.01000000</i>
  <i type="int" name="NSW">   200</i>
  <i type="int" name="ISIF">     2</i>
  <i type="int" name="ISYM">     0</i>
  <i name="ENCUT">    400.00000000</i>
  <i name="POTIM">      0.50000000</i>
  <i type="string" name="LREAL"> auto</i>
  <v name="ROPT">     -0.00020000     -0.00020000</v>
  <i type="logical" name="LPLANE"> T  </i>
  <i type="int" name="ISMEAR">     1</i>
  <i name="SIGMA">      0.01000000</i>
  <i type="int" name="NWRITE">     1</i>
  <i type="logical" name="LWAVE"> F  </i>
  <i type="logical" name="LCHARG"> F  </i>
  <i type="logical" name="LVTOT"> F  </i>
  <i type="int" name="NELM">   400</i>
  <i type="int" name="VOSKOWN">     1</i>
 </incar>
 <kpoints>
  <generation param="Monkhorst-Pack">
   <v type="int" name="divisions">       1        1        1 </v>
   <v name="usershift">      0.00000000       0.00000000       0.00000000 </v>
   <v name="genvec1">      1.00000000       0.00000000       0.00000000 </v>
   <v name="genvec2">      0.00000000       1.00000000       0.00000000 </v>
   <v name="genvec3">      0.00000000       0.00000000       1.00000000 </v>
   <v name="shift">      0.00000000       0.00000000       0.00000000 </v>
  </generation>
  <varray name="kpointlist" >
   <v>       0.00000000       0.00000000       0.00000000 </v>
  </varray>
  <varray name="weights" >
   <v>       1.00000000 </v>
  </varray>
 </kpoints>
 <parameters>
  <separator name="general" >
   <i type="string" name="SYSTEM">unknown system</i>
   <i type="logical" name="LCOMPAT"> F  </i>
  </separator>
  <separator name="electronic" >
   <i type="string" name="PREC">med</i>
   <i name="ENMAX">    400.00000000</i>
   <i name="ENAUG">    644.87300000</i>
   <i name="EDIFF">      0.00000100</i>
   <i type="int" name="IALGO">    68</i>
   <i type="int" name="IWAVPR">    11</i>
   <i type="int" name="NBANDS">    25</i>
   <i name="NELECT">     32.00000000</i>
   <i type="int" name="TURBO">     0</i>
   <i type="int" name="IRESTART">     0</i>
   <i type="int" name="NREBOOT">     0</i>
   <i type="int" name="NMIN">     0</i>
   <i name="EREF">      0.00000000</i>
   <separator name="electronic smearing" >
    <i type="int" name="ISMEAR">     1</i>
    <i name="SIGMA">      0.01000000</i>
    <i name="KSPACING">      0.50000000</i>
    <i type="logical" name="KGAMMA"> T  </i>
   </separator>
   <separator name="electronic projectors" >
    <i type="logical" name="LREAL"> T  </i>
    <v name="ROPT">     -0.00020000     -0.00020000</v>
    <i type="int" name="LMAXPAW">  -100</i>
    <i type="int" name="LMAXMIX">     2</i>
    <i type="logical" name="NLSPLINE"> F  </i>
   </separator>
   <separator name="electronic startup" >
    <i type="int" name="ISTART">     0</i>
    <i type="int" name="ICHARG">     2</i>
    <i type="int" name="INIWAV">     1</i>
   </separator>
   <separator name="electronic spin" >
    <i type="int" name="ISPIN">     1</i>
    <i type="logical" name="LNONCOLLINEAR"> F  </i>
    <v name="MAGMOM">      1.00000000      1.00000000      1.00000000      1.00000000      1.00000000      1.00000000      1.00000000      1.00000000      1.00000000      1.00000000      1.00000000      1.00000000      1.00000000      1.00000000      1.00000000      1.00000000      1.00000000</v>
    <i name="NUPDOWN">     -1.00000000</i>
    <i type="logical" name="LSORBIT"> F  </i>
    <v name="SAXIS">      0.00000000      0.00000000      1.00000000</v>
    <i type="logical" name="LSPIRAL"> F  </i>
    <v name="QSPIRAL">      0.00000000      0.00000000      0.00000000</v>
    <i type="logical" name="LZEROZ"> F  </i>
   </separator>
   <separator name="electronic exchange-correlation" >
    <i type="logical" name="LASPH"> F  </i>
    <i type="logical" name="LMETAGGA"> F  </i>
   </separator>
   <separator name="electronic convergence" >
    <i type="int" name="NELM">   400</i>
    <i type="int" name="NELMDL">   -10</i>
    <i type="int" name="NELMIN">     2</i>
    <i name="ENINI">    400.00000000</i>
    <separator name="electronic convergence detail" >
     <i type="logical" name="LDIAG"> T  </i>
     <i type="logical" name="LSUBROT"> T  </i>
     <i name="WEIMIN">      0.00100000</i>
     <i name="EBREAK">      0.00000001</i>
     <i name="DEPER">      0.30000000</i>
     <i type="int" name="NRMM">     4</i>
     <i name="TIME">      0.40000000</i>
    </separator>
   </separator>
   <separator name="electronic mixer" >
    <i name="AMIX">      0.40000000</i>
    <i name="BMIX">      1.00000000</i>
    <i name="AMIN">      0.10000000</i>
    <i name="AMIX_MAG">      1.60000000</i>
    <i name="BMIX_MAG">      1.00000000</i>
    <separator name="electronic mixer details" >
     <i type="int" name="IMIX">     4</i>
     <i type="int" name="MAXMIX">   -45</i>
     <i name="WC">    100.00000000</i>
     <i type="int" name="INIMIX">     1</i>
     <i type="int" name="MIXPRE">     1</i>
     <i type="int" name="MREMOVE">     5</i>
    </separator>
   </separator>
   <separator name="electronic dipolcorrection" >
    <i type="logical" name="LDIPOL"> F  </i>
    <i type="logical" name="LMONO"> F  </i>
    <i type="int" name="IDIPOL">     0</i>
    <i name="EPSILON">      1.00000000</i>
    <v name="DIPOL">   -100.00000000   -100.00000000   -100.00000000</v>
    <i name="EFIELD">      0.00000000</i>
   </separator>
  </separator>
  <separator name="grids" >
   <i type="int" name="NGX">    98</i>
   <i type="int" name="NGY">    98</i>
   <i type="int" name="NGZ">    98</i>
   <i type="int" name="NGXF">   168</i>
   <i type="int" name="NGYF">   168</i>
   <i type="int" name="NGZF">   168</i>
   <i type="logical" name="ADDGRID"> F  </i>
  </separator>
  <separator name="ionic" >
   <i type="int" name="NSW">   200</i>
   <i type="int" name="IBRION">     1</i>
   <i type="int" name="ISIF">     2</i>
   <i name="PSTRESS">      0.00000000</i>
   <i name="EDIFFG">     -0.01000000</i>
   <i type="int" name="NFREE">     2</i>
   <i name="POTIM">      0.50000000</i>
   <i name="SMASS">     -3.00000000</i>
   <i name="SCALEE">      1.00000000</i>
  </separator>
  <separator name="ionic md" >
   <i name="TEBEG">      0.00010000</i>
   <i name="TEEND">      0.00010000</i>
   <i type="int" name="NBLOCK">     1</i>
   <i type="int" name="KBLOCK">   200</i>
   <i type="int" name="NPACO">   256</i>
   <i name="APACO">     16.00000000</i>
  </separator>
  <separator name="symmetry" >
   <i type="int" name="ISYM">     0</i>
   <i name="SYMPREC">      0.00001000</i>
  </separator>
  <separator name="dos" >
   <i type="logical" name="LORBIT"> F  </i>
   <v name="RWIGS">     -1.00000000     -1.00000000</v>
   <i type="int" name="NEDOS">   301</i>
   <i name="EMIN">     10.00000000</i>
   <i name="EMAX">    -10.00000000</i>
   <i name="EFERMI">      0.00000000</i>
  </separator>
  <separator name="writing" >
   <i type="int" name="NWRITE">     1</i>
   <i type="logical" name="LWAVE"> F  </i>
   <i type="logical" name="LCHARG"> F  </i>
   <i type="logical" name="LPARD"> F  </i>
   <i type="logical" name="LVTOT"> F  </i>
   <i type="logical" name="LVHAR"> F  </i>
   <i type="logical" name="LELF"> F  </i>
   <i type="logical" name="LOPTICS"> F  </i>
   <v name="STM">      0.00000000      0.00000000      0.00000000      0.00000000      0.00000000      0.00000000      0.00000000</v>
  </separator>
  <separator name="performance" >
   <i type="int" name="NPAR">     1</i>
   <i type="int" name="NSIM">     4</i>
   <i type="int" name="NBLK">    -1</i>
   <i type="logical" name="LPLANE"> T  </i>
   <i type="logical" name="LSCALAPACK"> F  </i>
   <i type="logical" name="LSCAAWARE"> F  </i>
   <i type="logical" name="LSCALU"> F  </i>
   <i type="logical" name="LASYNC"> F  </i>
   <i type="logical" name="LORBITALREAL"> F  </i>
  </separator>
  <separator name="miscellaneous" >
   <i type="int" name="IDIOT">     3</i>
   <i type="logical" name="LMUSIC"> F  </i>
   <v name="POMASS">     12.01100000      1.00000000</v>
   <v name="DARWINR">      0.00000000      0.00000000</v>
   <v name="DARWINV">      1.00000000      1.00000000</v>
   <i type="logical" name="LCORR"> T  </i>
  </separator>
  <i type="logical" name="GGA_COMPAT"> T  </i>
  <i type="logical" name="LBERRY"> F  </i>
  <i type="int" name="ICORELEVEL">     0</i>
  <i type="logical" name="LDAU"> F  </i>
  <i type="int" name="I_CONSTRAINED_M">     0</i>
  <separator name="electronic exchange-correlation" >
   <i type="string" name="GGA">--</i>
   <i type="int" name="VOSKOWN">     1</i>
   <i type="logical" name="LHFCALC"> F  </i>
   <i type="string" name="PRECFOCK"></i>
   <i type="logical" name="LSYMGRAD"> F  </i>
   <i type="logical" name="LHFONE"> F  </i>
   <i type="logical" name="LRHFCALC"> F  </i>
   <i type="logical" name="LTHOMAS"> F  </i>
   <i type="logical" name="LMODELHF"> F  </i>
   <i name="ENCUT4O">     -1.00000000</i>
   <i type="int" name="EXXOEP">     0</i>
   <i type="int" name="FOURORBIT">     0</i>
   <i name="AEXX">      0.00000000</i>
   <i name="HFALPHA">      0.00000000</i>
   <i name="MCALPHA">      0.00000000</i>
   <i name="ALDAX">      1.00000000</i>
   <i name="AGGAX">      1.00000000</i>
   <i name="ALDAC">      1.00000000</i>
   <i name="AGGAC">      1.00000000</i>
   <i type="int" name="NKREDX">     1</i>
   <i type="int" name="NKREDY">     1</i>
   <i type="int" name="NKREDZ">     1</i>
   <i type="logical" name="SHIFTRED"> F  </i>
   <i type="logical" name="ODDONLY"> F  </i>
   <i type="logical" name="EVENONLY"> F  </i>
   <i type="int" name="LMAXFOCK">     0</i>
   <i type="int" name="NMAXFOCKAE">     0</i>
   <i type="logical" name="LFOCKAEDFT"> F  </i>
   <i name="HFSCREEN">      0.00000000</i>
   <i name="HFSCREENC">      0.00000000</i>
   <i type="int" name="NBANDSGWLOW">     0</i>
  </separator>
  <separator name="vdW DFT" >
   <i type="logical" name="LUSE_VDW"> F  </i>
   <i name="Zab_VDW">     -0.84910000</i>
   <i name="PARAM1">      0.12340000</i>
   <i name="PARAM2">      1.00000000</i>
   <i name="PARAM3">      0.00000000</i>
  </separator>
  <separator name="model GW" >
   <i type="int" name="MODEL_GW">     0</i>
   <i name="MODEL_EPS0">    282.35294118</i>
   <i name="MODEL_ALPHA">      1.00000000</i>
  </separator>
  <separator name="linear response parameters" >
   <i type="logical" name="LEPSILON"> F  </i>
   <i type="logical" name="LRPA"> F  </i>
   <i type="logical" name="LNABLA"> F  </i>
   <i type="logical" name="LVEL"> F  </i>
   <i type="int" name="KINTER">     0</i>
   <i name="CSHIFT">      0.10000000</i>
   <i name="OMEGAMAX">     -1.00000000</i>
   <i name="DEG_THRESHOLD">      0.00200000</i>
  </separator>
  <separator name="orbital magnetization" >
   <i type="logical" name="NUCIND"> F  </i>
   <v name="MAGPOS">      0.00000000      0.00000000      0.00000000</v>
   <i type="logical" name="LNICSALL"> T  </i>
   <i type="logical" name="ORBITALMAG"> F  </i>
   <i type="logical" name="LMAGBLOCH"> F  </i>
   <i type="logical" name="LCHIMAG"> F  </i>
   <i type="logical" name="LGAUGE"> T  </i>
   <i type="int" name="MAGATOM">     0</i>
   <v name="MAGDIPOL">      0.00000000      0.00000000      0.00000000</v>
   <v name="AVECCONST">      0.00000000      0.00000000      0.00000000</v>
  </separator>
  <separator name="response functions" >
   <i type="logical" name="LADDER"> F  </i>
   <i type="logical" name="LHARTREE"> T  </i>
   <i type="int" name="IBSE">     0</i>
   <i type="logical" name="LTCTE"> F  </i>
   <i type="logical" name="LTETE"> F  </i>
   <i type="logical" name="LTRIPLET"> F  </i>
   <i type="logical" name="LFXCEPS"> F  </i>
   <i type="logical" name="L2ORDER"> F  </i>
   <i type="logical" name="LUSEW"> F  </i>
   <i name="ENCUTGW">     -2.00000000</i>
   <i name="ENCUTGWSOFT">     -2.00000000</i>
   <i name="ENCUTLF">     -1.00000000</i>
   <i type="int" name="LMAXMP2">    -1</i>
   <i name="SCISSOR">      0.00000000</i>
   <i type="int" name="NOMEGA">     0</i>
   <i type="int" name="NOMEGAR">     0</i>
   <i type="int" name="NBANDSGW">    -1</i>
   <i type="int" name="NBANDSO">    -1</i>
   <i type="int" name="NBANDSV">    -1</i>
   <i type="int" name="NELM">   400</i>
   <i type="int" name="DIM">     3</i>
   <i type="int" name="ANTIRES">     0</i>
   <i name="OMEGAMAX">    -30.00000000</i>
   <i name="OMEGATL">   -200.00000000</i>
   <i type="int" name="OMEGAGRID">     0</i>
   <i name="CSHIFT">     -0.10000000</i>
   <i type="logical" name="SELFENERGY"> F  </i>
   <i type="logical" name="LSPECTRAL"> F  </i>
   <i type="logical" name="ODDONLYGW"> F  </i>
   <i type="logical" name="EVENONLYGW"> F  </i>
   <i type="int" name="NKREDLFX">     1</i>
   <i type="int" name="NKREDLFY">     1</i>
   <i type="int" name="NKREDLFZ">     1</i>
   <i type="int" name="MAXMEM">  1800</i>
   <i type="int" name="TELESCOPE">     0</i>
  </separator>
 </parameters>
 <atominfo>
  <atoms>      17 </atoms>
  <types>       2 </types>
  <array name="atoms" >
   <dimension dim="1">ion</dimension>
   <field type="string">element</field>
   <field type="int">atomtype</field>
   <set>
    <rc><c>C </c><c>   1</c></rc>
    <rc><c>C </c><c>   1</c></rc>
    <rc><c>C </c><c>   1</c></rc>
    <rc><c>C </c><c>   1</c></rc>
    <rc><c>C </c><c>   1</c></rc>
    <rc><c>H </c><c>   2</c></rc>
    <rc><c>H </c><c>   2</c></rc>
    <rc><c>H </c><c>   2</c></rc>
    <rc><c>H </c><c>   2</c></rc>
    <rc><c>H </c><c>   2</c></rc>
    <rc><c>H </c><c>   2</c></rc>
    <rc><c>H </c><c>   2</c></rc>
    <rc><c>H </c><c>   2</c></rc>
    <rc><c>H </c><c>   2</c></rc>
    <rc><c>H </c><c>   2</c></rc>
    <rc><c>H </c><c>   2</c></rc>
    <rc><c>H </c><c>   2</c></rc>
   </set>
  </array>
  <array name="atomtypes" >
   <dimension dim="1">type</dimension>
   <field type="int">atomspertype</field>
   <field type="string">element</field>
   <field>mass</field>
   <field>valence</field>
   <field type="string">pseudopotential</field>
   <set>
    <rc><c>   5</c><c>C </c><c>     12.01100000</c><c>      4.00000000</c><c>  PAW_PBE C 08Apr2002                   </c></rc>
    <rc><c>  12</c><c>H </c><c>      1.00000000</c><c>      1.00000000</c><c>  PAW_PBE H 15Jun2001                   </c></rc>
   </set>
  </array>
 </atominfo>
 <structure name="initialpos" >
  <crystal>
   <varray name="basis" >
    <v>      16.32993162      -8.16496581      -8.16496581 </v>
    <v>       0.00000000      14.14213562     -14.14213562 </v>
    <v>      11.54700538      11.54700538      11.54700538 </v>
   </varray>
   <i name="volume">   8000.00000000 </i>
   <varray name="rec_basis" >
    <v>       0.04082483      -0.02041241      -0.02041241 </v>
    <v>       0.00000000       0.03535534      -0.03535534 </v>
    <v>       0.02886751       0.02886751       0.02886751 </v>
   </varray>
  </crystal>
  <varray name="positions" >
   <v>       0.41984323       0.53484187       0.62771990 </v>
   <v>       0.38573040       0.47072531       0.65143464 </v>
   <v>       0.46666535       0.56561675       0.67974277 </v>
   <v>       0.50208561       0.62886857       0.65513017 </v>
   <v>       0.55187935       0.65856151       0.70602431 </v>
   <v>       0.44858099       0.52450572       0.58170654 </v>
   <v>       0.35206435       0.45030306       0.61300715 </v>
   <v>       0.35581164       0.47963818       0.69680557 </v>
   <v>       0.42280132       0.43181428       0.66350171 </v>
   <v>       0.50454718       0.52821446       0.69466475 </v>
   <v>       0.43813291       0.57727796       0.72564085 </v>
   <v>       0.46390933       0.66638352       0.64181580 </v>
   <v>       0.52813324       0.61705020       0.60797032 </v>
   <v>       0.38160362       0.57207558       0.61352980 </v>
   <v>       0.55347131       0.62864767       0.75221785 </v>
   <v>       0.53862677       0.70988658       0.72057834 </v>
   <v>       0.60312584       0.66010812       0.68617133 </v>
  </varray>
  <varray name="selective"  type="logical" >
   <v type="logical" >  T  T  T </v>
   <v type="logical" >  T  T  T </v>
   <v type="logical" >  T  T  T </v>
   <v type="logical" >  T  T  T </v>
   <v type="logical" >  T  T  T </v>
   <v type="logical" >  T  T  T </v>
   <v type="logical" >  T  T  T </v>
   <v type="logical" >  T  T  T </v>
   <v type="logical" >  T  T  T </v>
   <v type="logical" >  T  T  T </v>
   <v type="logical" >  T  T  T </v>
   <v type="logical" >  T  T  T </v>
   <v type="logical" >  T  T  T </v>
   <v type="logical" >  T  T  T </v>
   <v type="logical" >  T  T  T </v>
   <v type="logical" >  T  T  T </v>
   <v type="logical" >  T  T  T </v>
  </varray>
  <nose>
   <v>      -3.00000000       0.00000000       0.00010000       0.00010000 </v>
  </nose>
 </structure>
 <calculation>
  <scstep>
   <time name="dav">    1.36    1.41</time>
   <time name="total">    1.89    1.94</time>
   <energy>
    <i name="alphaZ">      0.52766962 </i>
    <i name="ewald">   1896.86994204 </i>
    <i name="hartreedc">  -2434.90256113 </i>
    <i name="XCdc">     93.57451042 </i>
    <i name="pawpsdc">    568.21856113 </i>
    <i name="pawaedc">   -571.17212359 </i>
    <i name="eentropy">      0.00057979 </i>
    <i name="bandstr">   -227.18006420 </i>
    <i name="atom">    885.37971134 </i>
    <i name="e_fr_energy">    211.31622543 </i>
    <i name="e_wo_entrp">    211.31564564 </i>
    <i name="e_0_energy">    211.31603216 </i>
   </energy>
  </scstep>
  <scstep>
   <time name="dav">    2.20    2.20</time>
   <time name="total">    2.20    2.29</time>
   <energy>
    <i name="e_fr_energy">     33.07097864 </i>
    <i name="e_wo_entrp">     33.07039885 </i>
    <i name="e_0_energy">     33.07078538 </i>
   </energy>
  </scstep>
  <scstep>
   <time name="dav">    1.60    1.60</time>
   <time name="total">    1.60    1.62</time>
   <energy>
    <i name="e_fr_energy">    -87.60894719 </i>
    <i name="e_wo_entrp">    -87.60894719 </i>
    <i name="e_0_energy">    -87.60894719 </i>
   </energy>
  </scstep>
  <scstep>
   <time name="dav">    1.35    1.35</time>
   <time name="total">    1.35    1.37</time>
   <energy>
    <i name="e_fr_energy">   -100.30609470 </i>
    <i name="e_wo_entrp">   -100.30609470 </i>
    <i name="e_0_energy">   -100.30609470 </i>
   </energy>
  </scstep>
  <scstep>
   <time name="dav">    1.34    1.34</time>
   <time name="total">    1.34    1.37</time>
   <energy>
    <i name="e_fr_energy">   -100.59531685 </i>
    <i name="e_wo_entrp">   -100.59589664 </i>
    <i name="e_0_energy">   -100.59551011 </i>
   </energy>
  </scstep>
  <scstep>
   <time name="dav">    1.48    1.48</time>
   <time name="total">    1.48    1.50</time>
   <energy>
    <i name="e_fr_energy">   -100.60502510 </i>
    <i name="e_wo_entrp">   -100.60502510 </i>
    <i name="e_0_energy">   -100.60502510 </i>
   </energy>
  </scstep>
  <scstep>
   <time name="dav">    1.35    1.35</time>
   <time name="total">    1.36    1.38</time>
   <energy>
    <i name="e_fr_energy">   -100.60476734 </i>
    <i name="e_wo_entrp">   -100.60534713 </i>
    <i name="e_0_energy">   -100.60496060 </i>
   </energy>
  </scstep>
  <scstep>
   <time name="dav">    1.48    1.48</time>
   <time name="total">    1.48    1.50</time>
   <energy>
    <i name="e_fr_energy">   -100.60536251 </i>
    <i name="e_wo_entrp">   -100.60536251 </i>
    <i name="e_0_energy">   -100.60536251 </i>
   </energy>
  </scstep>
  <scstep>
   <time name="dav">    1.22    1.22</time>
   <time name="total">    1.22    1.24</time>
   <energy>
    <i name="e_fr_energy">   -100.60536333 </i>
    <i name="e_wo_entrp">   -100.60536333 </i>
    <i name="e_0_energy">   -100.60536333 </i>
   </energy>
  </scstep>
  <scstep>
   <time name="dav">    1.09    1.09</time>
   <time name="total">    1.19    1.21</time>
   <energy>
    <i name="e_fr_energy">   -100.60536337 </i>
    <i name="e_wo_entrp">   -100.60536337 </i>
    <i name="e_0_energy">   -100.60536337 </i>
   </energy>
  </scstep>
  <scstep>
   <time name="diag">    0.15    0.15</time>
   <time name="diis">    1.35    1.35</time>
   <time name="orth">    0.00    0.01</time>
   <time name="total">    2.12    2.14</time>
   <energy>
    <i name="e_fr_energy">    -92.27207958 </i>
    <i name="e_wo_entrp">    -92.27207958 </i>
    <i name="e_0_energy">    -92.27207958 </i>
   </energy>
  </scstep>
  <scstep>
   <time name="diag">    0.14    0.14</time>
   <time name="diis">    0.84    0.84</time>
   <time name="orth">    0.00    0.01</time>
   <time name="total">    1.60    1.62</time>
   <energy>
    <i name="e_fr_energy">    -90.33438708 </i>
    <i name="e_wo_entrp">    -90.33496687 </i>
    <i name="e_0_energy">    -90.33458034 </i>
   </energy>
  </scstep>
  <scstep>
   <time name="diag">    0.14    0.14</time>
   <time name="diis">    0.84    0.84</time>
   <time name="orth">    0.00    0.00</time>
   <time name="total">    1.59    1.62</time>
   <energy>
    <i name="e_fr_energy">    -89.96600550 </i>
    <i name="e_wo_entrp">    -89.96658529 </i>
    <i name="e_0_energy">    -89.96619877 </i>
   </energy>
  </scstep>
  <scstep>
   <time name="diag">    0.14    0.14</time>
   <time name="diis">    0.88    0.88</time>
   <time name="orth">    0.00    0.00</time>
   <time name="total">    1.64    1.66</time>
   <energy>
    <i name="e_fr_energy">    -89.93669990 </i>
    <i name="e_wo_entrp">    -89.93727969 </i>
    <i name="e_0_energy">    -89.93689317 </i>
   </energy>
  </scstep>
  <scstep>
   <time name="diag">    0.14    0.14</time>
   <time name="diis">    0.84    0.84</time>
   <time name="orth">    0.00    0.00</time>
   <time name="total">    1.60    1.63</time>
   <energy>
    <i name="e_fr_energy">    -89.92618707 </i>
    <i name="e_wo_entrp">    -89.92676687 </i>
    <i name="e_0_energy">    -89.92638034 </i>
   </energy>
  </scstep>
  <scstep>
   <time name="diag">    0.14    0.14</time>
   <time name="diis">    0.84    0.84</time>
   <time name="orth">    0.00    0.00</time>
   <time name="total">    1.61    1.63</time>
   <energy>
    <i name="e_fr_energy">    -89.92791039 </i>
    <i name="e_wo_entrp">    -89.92849018 </i>
    <i name="e_0_energy">    -89.92810366 </i>
   </energy>
  </scstep>
  <scstep>
   <time name="diag">    0.14    0.14</time>
   <time name="diis">    0.84    0.84</time>
   <time name="orth">    0.01    0.01</time>
   <time name="total">    2.17    2.25</time>
   <energy>
    <i name="e_fr_energy">    -89.92699140 </i>
    <i name="e_wo_entrp">    -89.92757119 </i>
    <i name="e_0_energy">    -89.92718466 </i>
   </energy>
  </scstep>
  <scstep>
   <time name="diag">    0.14    0.14</time>
   <time name="diis">    0.86    0.86</time>
   <time name="orth">    0.01    0.01</time>
   <time name="total">    1.63    1.65</time>
   <energy>
    <i name="e_fr_energy">    -89.93932261 </i>
    <i name="e_wo_entrp">    -89.93990240 </i>
    <i name="e_0_energy">    -89.93951587 </i>
   </energy>
  </scstep>
  <scstep>
   <time name="diag">    0.14    0.14</time>
   <time name="diis">    2.59    2.58</time>
   <time name="orth">    0.01    0.01</time>
   <time name="total">    3.37    3.37</time>
   <energy>
    <i name="e_fr_energy">    -89.94284862 </i>
    <i name="e_wo_entrp">    -89.94342841 </i>
    <i name="e_0_energy">    -89.94304189 </i>
   </energy>
  </scstep>
  <scstep>
   <time name="diag">    0.14    0.14</time>
   <time name="diis">    0.84    0.84</time>
   <time name="orth">    0.01    0.01</time>
   <time name="total">    1.63    1.63</time>
   <energy>
    <i name="e_fr_energy">    -89.94939709 </i>
    <i name="e_wo_entrp">    -89.94997688 </i>
    <i name="e_0_energy">    -89.94959036 </i>
   </energy>
  </scstep>
  <scstep>
   <time name="diag">    0.14    0.14</time>
   <time name="diis">    0.88    0.88</time>
   <time name="orth">    0.01    0.01</time>
   <time name="total">    1.68    1.69</time>
   <energy>
    <i name="e_fr_energy">    -89.94944149 </i>
    <i name="e_wo_entrp">    -89.95002128 </i>
    <i name="e_0_energy">    -89.94963475 </i>
   </energy>
  </scstep>
  <scstep>
   <time name="diag">    0.14    0.14</time>
   <time name="diis">    0.84    0.84</time>
   <time name="orth">    0.01    0.01</time>
   <time name="total">    1.63    1.63</time>
   <energy>
    <i name="e_fr_energy">    -89.95104160 </i>
    <i name="e_wo_entrp">    -89.95162139 </i>
    <i name="e_0_energy">    -89.95123486 </i>
   </energy>
  </scstep>
  <scstep>
   <time name="diag">    0.14    0.14</time>
   <time name="diis">    0.84    0.84</time>
   <time name="orth">    0.01    0.01</time>
   <time name="total">    1.63    1.63</time>
   <energy>
    <i name="e_fr_energy">    -89.95109319 </i>
    <i name="e_wo_entrp">    -89.95167298 </i>
    <i name="e_0_energy">    -89.95128646 </i>
   </energy>
  </scstep>
  <scstep>
   <time name="diag">    0.14    0.14</time>
   <time name="diis">    0.84    0.84</time>
   <time name="orth">    0.01    0.01</time>
   <time name="total">    1.63    1.63</time>
   <energy>
    <i name="e_fr_energy">    -89.95140979 </i>
    <i name="e_wo_entrp">    -89.95198958 </i>
    <i name="e_0_energy">    -89.95160305 </i>
   </energy>
  </scstep>
  <scstep>
   <time name="diag">    0.14    0.14</time>
   <time name="diis">    0.74    0.74</time>
   <time name="orth">    0.00    0.01</time>
   <time name="total">    1.53    1.53</time>
   <energy>
    <i name="e_fr_energy">    -89.95142155 </i>
    <i name="e_wo_entrp">    -89.95200134 </i>
    <i name="e_0_energy">    -89.95161481 </i>
   </energy>
  </scstep>
  <scstep>
   <time name="diag">    0.14    0.14</time>
   <time name="diis">    0.84    0.84</time>
   <time name="orth">    0.00    0.01</time>
   <time name="total">    1.63    1.63</time>
   <energy>
    <i name="e_fr_energy">    -89.95149604 </i>
    <i name="e_wo_entrp">    -89.95207583 </i>
    <i name="e_0_energy">    -89.95168930 </i>
   </energy>
  </scstep>
  <scstep>
   <time name="diag">    0.14    0.14</time>
   <time name="diis">    0.59    0.59</time>
   <time name="orth">    0.01    0.01</time>
   <time name="total">    1.26    1.26</time>
   <energy>
    <i name="alphaZ">      0.52766962 </i>
    <i name="ewald">   1896.86994204 </i>
    <i name="hartreedc">  -2607.43564375 </i>
    <i name="XCdc">    102.37268024 </i>
    <i name="pawpsdc">   2159.85835155 </i>
    <i name="pawaedc">  -2163.52509970 </i>
    <i name="eentropy">      0.00057979 </i>
    <i name="bandstr">   -363.99968756 </i>
    <i name="atom">    885.37971134 </i>
    <i name="e_fr_energy">    -89.95149643 </i>
    <i name="e_wo_entrp">    -89.95207622 </i>
    <i name="e_0_energy">    -89.95168969 </i>
   </energy>
  </scstep>
  <structure>
   <crystal>
    <varray name="basis" >
     <v>      16.32993162      -8.16496581      -8.16496581 </v>
     <v>       0.00000000      14.14213562     -14.14213562 </v>
     <v>      11.54700538      11.54700538      11.54700538 </v>
    </varray>
    <i name="volume">   8000.00000000 </i>
    <varray name="rec_basis" >
     <v>       0.04082483      -0.02041241      -0.02041241 </v>
     <v>       0.00000000       0.03535534      -0.03535534 </v>
     <v>       0.02886751       0.02886751       0.02886751 </v>
    </varray>
   </crystal>
   <varray name="positions" >
    <v>       0.41984323       0.53484187       0.62771990 </v>
    <v>       0.38573040       0.47072531       0.65143464 </v>
    <v>       0.46666535       0.56561675       0.67974277 </v>
    <v>       0.50208561       0.62886857       0.65513017 </v>
    <v>       0.55187935       0.65856151       0.70602431 </v>
    <v>       0.44858099       0.52450572       0.58170654 </v>
    <v>       0.35206435       0.45030306       0.61300715 </v>
    <v>       0.35581164       0.47963818       0.69680557 </v>
    <v>       0.42280132       0.43181428       0.66350171 </v>
    <v>       0.50454718       0.52821446       0.69466475 </v>
    <v>       0.43813291       0.57727796       0.72564085 </v>
    <v>       0.46390933       0.66638352       0.64181580 </v>
    <v>       0.52813324       0.61705020       0.60797032 </v>
    <v>       0.38160362       0.57207558       0.61352980 </v>
    <v>       0.55347131       0.62864767       0.75221785 </v>
    <v>       0.53862677       0.70988658       0.72057834 </v>
    <v>       0.60312584       0.66010812       0.68617133 </v>
   </varray>
  </structure>
  <varray name="forces" >
   <v>      -0.00273011       0.00077703      -0.00069289 </v>
   <v>       0.00180565       0.00147864       0.00099885 </v>
   <v>       0.00056557      -0.00569085      -0.00264331 </v>
   <v>      -0.00106883      -0.00087759      -0.00258147 </v>
   <v>      -0.00063208       0.00096343       0.00156633 </v>
   <v>      -0.00589038      -0.00128505       0.00067159 </v>
   <v>       0.00215946       0.00134405       0.00449317 </v>
   <v>       0.00146183       0.00520381      -0.00120111 </v>
   <v>       0.00329114       0.00525542       0.00137667 </v>
   <v>      -0.00170606      -0.00818398      -0.00541724 </v>
   <v>       0.00437041      -0.00579630      -0.00072401 </v>
   <v>      -0.00045665      -0.00311575      -0.00112830 </v>
   <v>       0.00256083      -0.00098332      -0.00449714 </v>
   <v>       0.00026100       0.00103295       0.00113972 </v>
   <v>      -0.00373426       0.00248347       0.00348824 </v>
   <v>      -0.00279519       0.00298209       0.00245697 </v>
   <v>       0.00253766       0.00441196       0.00269392 </v>
  </varray>
  <varray name="stress" >
   <v>      -0.27599508      -0.00460736       0.00693874 </v>
   <v>      -0.00460736      -0.27137756       0.00611099 </v>
   <v>       0.00693874       0.00611099      -0.27522526 </v>
  </varray>
  <energy>
   <i name="e_fr_energy">    -90.09925194 </i>
   <i name="e_wo_entrp">    -90.09944521 </i>
   <i name="e_0_energy">      0.00057979 </i>
  </energy>
  <time name="totalsc">   47.33   47.95</time>
  <eigenvalues>
   <array>
    <dimension dim="1">band</dimension>
    <dimension dim="2">kpoint</dimension>
    <dimension dim="3">spin</dimension>
    <field>eigene</field>
    <field>occ</field>
    <set>
     <set comment="spin 1">
      <set comment="kpoint 1">
       <r>  -19.6930    1.0000 </r>
       <r>  -18.3564    1.0000 </r>
       <r>  -16.4805    1.0000 </r>
       <r>  -14.5201    1.0000 </r>
       <r>  -13.9153    1.0000 </r>
       <r>  -11.4273    1.0000 </r>
       <r>  -10.5295    1.0000 </r>
       <r>  -10.3166    1.0000 </r>
       <r>   -9.7404    1.0000 </r>
       <r>   -9.3304    1.0000 </r>
       <r>   -8.9862    1.0000 </r>
       <r>   -8.3564    1.0000 </r>
       <r>   -7.7968    1.0000 </r>
       <r>   -7.7173    1.0000 </r>
       <r>   -7.4630    1.0000 </r>
       <r>   -7.3708    1.0000 </r>
       <r>   -0.4675    0.0000 </r>
       <r>   -0.1362    0.0000 </r>
       <r>   -0.0378    0.0000 </r>
       <r>    0.0308    0.0000 </r>
       <r>    0.0807    0.0000 </r>
       <r>    0.2858    0.0000 </r>
       <r>    0.2961    0.0000 </r>
       <r>    0.4644    0.0000 </r>
       <r>    0.5135    0.0000 </r>
      </set>
     </set>
    </set>
   </array>
  </eigenvalues>
  <separator name="orbital magnetization" >
   <v name="MAGDIPOLOUT">      0.00000000      0.00000000      0.00000000</v>
  </separator>
 </calculation>
 <structure name="finalpos" >
  <crystal>
   <varray name="basis" >
    <v>      16.32993162      -8.16496581      -8.16496581 </v>
    <v>       0.00000000      14.14213562     -14.14213562 </v>
    <v>      11.54700538      11.54700538      11.54700538 </v>
   </varray>
   <i name="volume">   8000.00000000 </i>
   <varray name="rec_basis" >
    <v>       0.04082483      -0.02041241      -0.02041241 </v>
    <v>       0.00000000       0.03535534      -0.03535534 </v>
    <v>       0.02886751       0.02886751       0.02886751 </v>
   </varray>
  </crystal>
  <varray name="positions" >
   <v>       0.41984323       0.53484187       0.62771990 </v>
   <v>       0.38573040       0.47072531       0.65143464 </v>
   <v>       0.46666535       0.56561675       0.67974277 </v>
   <v>       0.50208561       0.62886857       0.65513017 </v>
   <v>       0.55187935       0.65856151       0.70602431 </v>
   <v>       0.44858099       0.52450572       0.58170654 </v>
   <v>       0.35206435       0.45030306       0.61300715 </v>
   <v>       0.35581164       0.47963818       0.69680557 </v>
   <v>       0.42280132       0.43181428       0.66350171 </v>
   <v>       0.50454718       0.52821446       0.69466475 </v>
   <v>       0.43813291       0.57727796       0.72564085 </v>
   <v>       0.46390933       0.66638352       0.64181580 </v>
   <v>       0.52813324       0.61705020       0.60797032 </v>
   <v>       0.38160362       0.57207558       0.61352980 </v>
   <v>       0.55347131       0.62864767       0.75221785 </v>
   <v>       0.53862677       0.70988658       0.72057834 </v>
   <v>       0.60312584       0.66010812       0.68617133 </v>
  </varray>
  <varray name="selective"  type="logical" >
   <v type="logical" >  T  T  T </v>
   <v type="logical" >  T  T  T </v>
   <v type="logical" >  T  T  T </v>
   <v type="logical" >  T  T  T </v>
   <v type="logical" >  T  T  T </v>
   <v type="logical" >  T  T  T </v>
   <v type="logical" >  T  T  T </v>
   <v type="logical" >  T  T  T </v>
   <v type="logical" >  T  T  T </v>
   <v type="logical" >  T  T  T </v>
   <v type="logical" >  T  T  T </v>
   <v type="logical" >  T  T  T </v>
   <v type="logical" >  T  T  T </v>
   <v type="logical" >  T  T  T </v>
   <v type="logical" >  T  T  T </v>
   <v type="logical" >  T  T  T </v>
   <v type="logical" >  T  T  T </v>
  </varray>
  <nose>
   <v>      -3.00000000       0.00000000       0.00010000       0.00010000 </v>
  </nose>
 </structure>
</modeling>
