unknown system                          
           1
    16.329932   -8.164966   -8.164966
     0.000000   14.142136  -14.142136
    11.547005   11.547005   11.547005
   C    H 
   5  12
Direct configuration=     1
   0.41984323  0.53484187  0.62771990
   0.38573040  0.47072531  0.65143464
   0.46666535  0.56561675  0.67974277
   0.50208561  0.62886857  0.65513017
   0.55187935  0.65856151  0.70602431
   0.44858099  0.52450572  0.58170654
   0.35206435  0.45030306  0.61300715
   0.35581164  0.47963818  0.69680557
   0.42280132  0.43181428  0.66350171
   0.50454718  0.52821446  0.69466475
   0.43813291  0.57727796  0.72564085
   0.46390933  0.66638352  0.64181580
   0.52813324  0.61705020  0.60797032
   0.38160362  0.57207558  0.61352980
   0.55347131  0.62864767  0.75221785
   0.53862677  0.70988658  0.72057834
   0.60312584  0.66010812  0.68617133
