  13  13   0   0
  0.6153846E+03  0.2000000E-08  0.2000000E-08  0.2000000E-08  0.5000000E-15
  1.000000000000000E-004
  CAR 
 unknown system                          
      1.33853351    -21.03937302  301     -5.43570139      1.00000000
    -21.039  0.0000E+00  0.0000E+00
    -20.965  0.0000E+00  0.0000E+00
    -20.890  0.0000E+00  0.0000E+00
    -20.816  0.0000E+00  0.0000E+00
    -20.741  0.0000E+00  0.0000E+00
    -20.666  0.0000E+00  0.0000E+00
    -20.592  0.0000E+00  0.0000E+00
    -20.517  0.0000E+00  0.0000E+00
    -20.443  0.0000E+00  0.0000E+00
    -20.368  0.0000E+00  0.0000E+00
    -20.293  0.0000E+00  0.0000E+00
    -20.219  0.0000E+00  0.0000E+00
    -20.144 -0.9097E-65 -0.6786E-66
    -20.070 -0.2813E-10 -0.2098E-11
    -19.995  0.1341E+00  0.1000E-01
    -19.920  0.0000E+00  0.1000E-01
    -19.846  0.0000E+00  0.1000E-01
    -19.771  0.0000E+00  0.1000E-01
    -19.697  0.0000E+00  0.1000E-01
    -19.622  0.0000E+00  0.1000E-01
    -19.548  0.0000E+00  0.1000E-01
    -19.473  0.0000E+00  0.1000E-01
    -19.398  0.0000E+00  0.1000E-01
    -19.324  0.0000E+00  0.1000E-01
    -19.249  0.0000E+00  0.1000E-01
    -19.175  0.0000E+00  0.1000E-01
    -19.100  0.0000E+00  0.1000E-01
    -19.025  0.0000E+00  0.1000E-01
    -18.951  0.0000E+00  0.1000E-01
    -18.876  0.0000E+00  0.1000E-01
    -18.802 -0.2115E-55  0.1000E-01
    -18.727 -0.5961E-07  0.1000E-01
    -18.652  0.1341E+00  0.2000E-01
    -18.578  0.0000E+00  0.2000E-01
    -18.503  0.0000E+00  0.2000E-01
    -18.429  0.0000E+00  0.2000E-01
    -18.354  0.0000E+00  0.2000E-01
    -18.279  0.0000E+00  0.2000E-01
    -18.205  0.0000E+00  0.2000E-01
    -18.130  0.0000E+00  0.2000E-01
    -18.056  0.0000E+00  0.2000E-01
    -17.981  0.0000E+00  0.2000E-01
    -17.906  0.0000E+00  0.2000E-01
    -17.832  0.0000E+00  0.2000E-01
    -17.757  0.0000E+00  0.2000E-01
    -17.683  0.0000E+00  0.2000E-01
    -17.608  0.0000E+00  0.2000E-01
    -17.534  0.0000E+00  0.2000E-01
    -17.459  0.0000E+00  0.2000E-01
    -17.384  0.0000E+00  0.2000E-01
    -17.310  0.0000E+00  0.2000E-01
    -17.235  0.0000E+00  0.2000E-01
    -17.161  0.0000E+00  0.2000E-01
    -17.086  0.0000E+00  0.2000E-01
    -17.011  0.0000E+00  0.2000E-01
    -16.937  0.0000E+00  0.2000E-01
    -16.862 -0.3261E-43  0.2000E-01
    -16.788 -0.1564E-03  0.1999E-01
    -16.713  0.1342E+00  0.3000E-01
    -16.638  0.0000E+00  0.3000E-01
    -16.564  0.0000E+00  0.3000E-01
    -16.489  0.0000E+00  0.3000E-01
    -16.415  0.0000E+00  0.3000E-01
    -16.340  0.0000E+00  0.3000E-01
    -16.265  0.0000E+00  0.3000E-01
    -16.191  0.0000E+00  0.3000E-01
    -16.116  0.0000E+00  0.3000E-01
    -16.042  0.0000E+00  0.3000E-01
    -15.967  0.0000E+00  0.3000E-01
    -15.892  0.0000E+00  0.3000E-01
    -15.818  0.0000E+00  0.3000E-01
    -15.743  0.0000E+00  0.3000E-01
    -15.669  0.0000E+00  0.3000E-01
    -15.594  0.0000E+00  0.3000E-01
    -15.519  0.0000E+00  0.3000E-01
    -15.445  0.0000E+00  0.3000E-01
    -15.370  0.0000E+00  0.3000E-01
    -15.296  0.0000E+00  0.3000E-01
    -15.221  0.0000E+00  0.3000E-01
    -15.147  0.0000E+00  0.3000E-01
    -15.072  0.0000E+00  0.3000E-01
    -14.997  0.0000E+00  0.3000E-01
    -14.923  0.0000E+00  0.3000E-01
    -14.848  0.0000E+00  0.3000E-01
    -14.774  0.0000E+00  0.3000E-01
    -14.699  0.0000E+00  0.3000E-01
    -14.624  0.0000E+00  0.3000E-01
    -14.550  0.0000E+00  0.3000E-01
    -14.475  0.0000E+00  0.3000E-01
    -14.401  0.0000E+00  0.3000E-01
    -14.326  0.0000E+00  0.3000E-01
    -14.251 -0.3777E-85  0.3000E-01
    -14.177 -0.6344E-19  0.3000E-01
    -14.102  0.1360E+00  0.4014E-01
    -14.028  0.0000E+00  0.4000E-01
    -13.953  0.0000E+00  0.4000E-01
    -13.878  0.0000E+00  0.4000E-01
    -13.804  0.0000E+00  0.4000E-01
    -13.729  0.0000E+00  0.4000E-01
    -13.655  0.0000E+00  0.4000E-01
    -13.580 -0.9824E-92  0.4000E-01
    -13.505 -0.4855E-22  0.4000E-01
    -13.431  0.1072E+00  0.4800E-01
    -13.356  0.2683E-01  0.5000E-01
    -13.282  0.0000E+00  0.5000E-01
    -13.207  0.0000E+00  0.5000E-01
    -13.133  0.0000E+00  0.5000E-01
    -13.058  0.0000E+00  0.5000E-01
    -12.983  0.0000E+00  0.5000E-01
    -12.909  0.0000E+00  0.5000E-01
    -12.834  0.0000E+00  0.5000E-01
    -12.760  0.0000E+00  0.5000E-01
    -12.685  0.0000E+00  0.5000E-01
    -12.610  0.0000E+00  0.5000E-01
    -12.536  0.0000E+00  0.5000E-01
    -12.461  0.0000E+00  0.5000E-01
    -12.387  0.0000E+00  0.5000E-01
    -12.312  0.0000E+00  0.5000E-01
    -12.237  0.0000E+00  0.5000E-01
    -12.163  0.0000E+00  0.5000E-01
    -12.088  0.0000E+00  0.5000E-01
    -12.014  0.0000E+00  0.5000E-01
    -11.939  0.0000E+00  0.5000E-01
    -11.864  0.0000E+00  0.5000E-01
    -11.790  0.0000E+00  0.5000E-01
    -11.715  0.0000E+00  0.5000E-01
    -11.641  0.0000E+00  0.5000E-01
    -11.566 -0.8185E-43  0.5000E-01
    -11.491 -0.1920E-03  0.4999E-01
    -11.417  0.1343E+00  0.6000E-01
    -11.342  0.0000E+00  0.6000E-01
    -11.268  0.0000E+00  0.6000E-01
    -11.193  0.0000E+00  0.6000E-01
    -11.119  0.0000E+00  0.6000E-01
    -11.044  0.0000E+00  0.6000E-01
    -10.969 -0.3506E-88  0.6000E-01
    -10.895 -0.2420E-20  0.6000E-01
    -10.820  0.1272E+00  0.6949E-01
    -10.746  0.0000E+00  0.7000E-01
    -10.671  0.0000E+00  0.7000E-01
    -10.596  0.0000E+00  0.7000E-01
    -10.522  0.0000E+00  0.7000E-01
    -10.447  0.0000E+00  0.7000E-01
    -10.373  0.0000E+00  0.7000E-01
    -10.298  0.0000E+00  0.7000E-01
    -10.223  0.0000E+00  0.7000E-01
    -10.149 -0.1069E-50  0.7000E-01
    -10.074 -0.1727E-05  0.7000E-01
    -10.000  0.1341E+00  0.8000E-01
     -9.925 -0.8386E-96  0.8000E-01
     -9.850 -0.4982E-24  0.8000E-01
     -9.776  0.7432E-01  0.8554E-01
     -9.701  0.5974E-01  0.9000E-01
     -9.627  0.0000E+00  0.9000E-01
     -9.552  0.0000E+00  0.9000E-01
     -9.477  0.0000E+00  0.9000E-01
     -9.403  0.0000E+00  0.9000E-01
     -9.328  0.0000E+00  0.9000E-01
     -9.254 -0.9425E-75  0.9000E-01
     -9.179 -0.2606E-14  0.9000E-01
     -9.104  0.1360E+00  0.1001E+00
     -9.030  0.0000E+00  0.1000E+00
     -8.955  0.0000E+00  0.1000E+00
     -8.881  0.0000E+00  0.1000E+00
     -8.806  0.0000E+00  0.1000E+00
     -8.732 -0.7541E-59  0.1000E+00
     -8.657 -0.4073E-08  0.1000E+00
     -8.582  0.1341E+00  0.1100E+00
     -8.508  0.0000E+00  0.1100E+00
     -8.433  0.0000E+00  0.1100E+00
     -8.359  0.0000E+00  0.1100E+00
     -8.284 -0.8952E-92  0.1100E+00
     -8.209 -0.4642E-22  0.1100E+00
     -8.135  0.1069E+00  0.1180E+00
     -8.060  0.2711E-01  0.1200E+00
     -7.986  0.0000E+00  0.1200E+00
     -7.911  0.0000E+00  0.1200E+00
     -7.836 -0.1187E-45  0.1200E+00
     -7.762 -0.4107E-04  0.1200E+00
     -7.687  0.1341E+00  0.1300E+00
     -7.613  0.0000E+00  0.1300E+00
     -7.538  0.0000E+00  0.1300E+00
     -7.463  0.0000E+00  0.1300E+00
     -7.389  0.0000E+00  0.1300E+00
     -7.314  0.0000E+00  0.1300E+00
     -7.240  0.0000E+00  0.1300E+00
     -7.165  0.0000E+00  0.1300E+00
     -7.090  0.0000E+00  0.1300E+00
     -7.016  0.0000E+00  0.1300E+00
     -6.941  0.0000E+00  0.1300E+00
     -6.867  0.0000E+00  0.1300E+00
     -6.792  0.0000E+00  0.1300E+00
     -6.718  0.0000E+00  0.1300E+00
     -6.643  0.0000E+00  0.1300E+00
     -6.568  0.0000E+00  0.1300E+00
     -6.494  0.0000E+00  0.1300E+00
     -6.419  0.0000E+00  0.1300E+00
     -6.345  0.0000E+00  0.1300E+00
     -6.270  0.0000E+00  0.1300E+00
     -6.195  0.0000E+00  0.1300E+00
     -6.121  0.0000E+00  0.1300E+00
     -6.046  0.0000E+00  0.1300E+00
     -5.972  0.0000E+00  0.1300E+00
     -5.897  0.0000E+00  0.1300E+00
     -5.822  0.0000E+00  0.1300E+00
     -5.748  0.0000E+00  0.1300E+00
     -5.673  0.0000E+00  0.1300E+00
     -5.599 -0.1268-103  0.1300E+00
     -5.524 -0.5648E-28  0.1300E+00
     -5.449  0.1519E-01  0.1311E+00
     -5.375  0.1189E+00  0.1400E+00
     -5.300  0.0000E+00  0.1400E+00
     -5.226  0.0000E+00  0.1400E+00
     -5.151  0.0000E+00  0.1400E+00
     -5.076  0.0000E+00  0.1400E+00
     -5.002  0.0000E+00  0.1400E+00
     -4.927  0.0000E+00  0.1400E+00
     -4.853  0.0000E+00  0.1400E+00
     -4.778  0.0000E+00  0.1400E+00
     -4.704  0.0000E+00  0.1400E+00
     -4.629  0.0000E+00  0.1400E+00
     -4.554  0.0000E+00  0.1400E+00
     -4.480  0.0000E+00  0.1400E+00
     -4.405  0.0000E+00  0.1400E+00
     -4.331  0.0000E+00  0.1400E+00
     -4.256  0.0000E+00  0.1400E+00
     -4.181  0.0000E+00  0.1400E+00
     -4.107  0.0000E+00  0.1400E+00
     -4.032  0.0000E+00  0.1400E+00
     -3.958  0.0000E+00  0.1400E+00
     -3.883  0.0000E+00  0.1400E+00
     -3.808  0.0000E+00  0.1400E+00
     -3.734  0.0000E+00  0.1400E+00
     -3.659  0.0000E+00  0.1400E+00
     -3.585  0.0000E+00  0.1400E+00
     -3.510  0.0000E+00  0.1400E+00
     -3.435  0.0000E+00  0.1400E+00
     -3.361  0.0000E+00  0.1400E+00
     -3.286  0.0000E+00  0.1400E+00
     -3.212  0.0000E+00  0.1400E+00
     -3.137  0.0000E+00  0.1400E+00
     -3.062  0.0000E+00  0.1400E+00
     -2.988  0.0000E+00  0.1400E+00
     -2.913  0.0000E+00  0.1400E+00
     -2.839  0.0000E+00  0.1400E+00
     -2.764  0.0000E+00  0.1400E+00
     -2.689  0.0000E+00  0.1400E+00
     -2.615  0.0000E+00  0.1400E+00
     -2.540  0.0000E+00  0.1400E+00
     -2.466  0.0000E+00  0.1400E+00
     -2.391  0.0000E+00  0.1400E+00
     -2.317  0.0000E+00  0.1400E+00
     -2.242  0.0000E+00  0.1400E+00
     -2.167  0.0000E+00  0.1400E+00
     -2.093  0.0000E+00  0.1400E+00
     -2.018  0.0000E+00  0.1400E+00
     -1.944  0.0000E+00  0.1400E+00
     -1.869  0.0000E+00  0.1400E+00
     -1.794  0.0000E+00  0.1400E+00
     -1.720 -0.2574E-37  0.1400E+00
     -1.645 -0.2000E-02  0.1399E+00
     -1.571  0.1361E+00  0.1500E+00
     -1.496  0.0000E+00  0.1500E+00
     -1.421  0.0000E+00  0.1500E+00
     -1.347  0.0000E+00  0.1500E+00
     -1.272  0.0000E+00  0.1500E+00
     -1.198  0.0000E+00  0.1500E+00
     -1.123  0.0000E+00  0.1500E+00
     -1.048  0.0000E+00  0.1500E+00
     -0.974  0.0000E+00  0.1500E+00
     -0.899  0.0000E+00  0.1500E+00
     -0.825  0.0000E+00  0.1500E+00
     -0.750  0.0000E+00  0.1500E+00
     -0.675  0.0000E+00  0.1500E+00
     -0.601  0.0000E+00  0.1500E+00
     -0.526 -0.1213-101  0.1500E+00
     -0.452 -0.5831E-27  0.1500E+00
     -0.377  0.2696E-01  0.1520E+00
     -0.303  0.1071E+00  0.1600E+00
     -0.228 -0.2602E-66  0.1600E+00
     -0.153 -0.7169E-11  0.1600E+00
     -0.079  0.1297E+00  0.1697E+00
     -0.004  0.1385E+00  0.1800E+00
      0.070 -0.2381E-85  0.1800E+00
      0.145 -0.5122E-19  0.1800E+00
      0.220  0.1350E+00  0.1901E+00
      0.294  0.1346E+00  0.2000E+00
      0.369  0.1341E+00  0.2100E+00
      0.443  0.0000E+00  0.2100E+00
      0.518  0.0000E+00  0.2100E+00
      0.593  0.0000E+00  0.2100E+00
      0.667  0.0000E+00  0.2100E+00
      0.742  0.0000E+00  0.2100E+00
      0.816  0.0000E+00  0.2100E+00
      0.891  0.0000E+00  0.2100E+00
      0.966  0.0000E+00  0.2100E+00
      1.040  0.0000E+00  0.2100E+00
      1.115  0.0000E+00  0.2100E+00
      1.189  0.0000E+00  0.2100E+00
      1.264  0.0000E+00  0.2100E+00
      1.339  0.0000E+00  0.2100E+00
