       N       E                     dE             d eps       ncg     rms          rms(c)
DAV:   1     0.179267885363E+03    0.17927E+03   -0.51574E+03    58   0.498E+02
DAV:   2     0.290656611991E+02   -0.15020E+03   -0.14803E+03    76   0.106E+02
DAV:   3    -0.656439260745E+02   -0.94710E+02   -0.94421E+02    60   0.794E+01
DAV:   4    -0.818044159973E+02   -0.16160E+02   -0.16137E+02    52   0.440E+01
DAV:   5    -0.823324926916E+02   -0.52808E+00   -0.52842E+00    55   0.111E+01
DAV:   6    -0.823361360045E+02   -0.36433E-02   -0.36428E-02    60   0.975E-01
DAV:   7    -0.823362214692E+02   -0.85465E-04   -0.85460E-04    68   0.157E-01
DAV:   8    -0.823362251775E+02   -0.37083E-05   -0.37097E-05    60   0.293E-02
DAV:   9    -0.823362253890E+02   -0.21157E-06   -0.21092E-06    68   0.707E-03
DAV:  10    -0.823362254004E+02   -0.11372E-07   -0.11061E-07    52   0.179E-03    0.143E+01
RMM:  11    -0.755937423323E+02    0.67425E+01   -0.11297E+01    42   0.145E+01    0.772E+00
RMM:  12    -0.739294169123E+02    0.16643E+01   -0.64489E+00    42   0.105E+01    0.323E+00
RMM:  13    -0.737229698824E+02    0.20645E+00   -0.38425E-01    42   0.295E+00    0.623E-01
RMM:  14    -0.737032779084E+02    0.19692E-01   -0.44243E-02    44   0.100E+00    0.293E-01
RMM:  15    -0.736963711039E+02    0.69068E-02   -0.24794E-02    42   0.612E-01    0.187E-01
RMM:  16    -0.736954925368E+02    0.87857E-03   -0.53576E-03    42   0.356E-01    0.121E-01
RMM:  17    -0.736955427191E+02   -0.50182E-04   -0.73439E-03    42   0.304E-01    0.585E-02
RMM:  18    -0.737029906309E+02   -0.74479E-02   -0.28810E-03    42   0.200E-01    0.737E-02
RMM:  19    -0.737094879411E+02   -0.64973E-02   -0.17375E-03    42   0.167E-01    0.210E-02
RMM:  20    -0.737139088745E+02   -0.44209E-02   -0.10400E-03    42   0.124E-01    0.242E-02
RMM:  21    -0.737147696747E+02   -0.86080E-03   -0.23322E-04    43   0.492E-02    0.963E-03
RMM:  22    -0.737158102578E+02   -0.10406E-02   -0.13688E-04    42   0.425E-02    0.109E-02
RMM:  23    -0.737159148823E+02   -0.10462E-03   -0.17954E-05    42   0.151E-02    0.382E-03
RMM:  24    -0.737161507785E+02   -0.23590E-03   -0.13399E-05    39   0.138E-02    0.243E-03
RMM:  25    -0.737162179106E+02   -0.67132E-04   -0.19975E-06    30   0.583E-03    0.124E-03
RMM:  26    -0.737162781074E+02   -0.60197E-04   -0.13368E-06    29   0.476E-03    0.868E-04
RMM:  27    -0.737162903064E+02   -0.12199E-04   -0.29883E-07    28   0.261E-03    0.889E-04
RMM:  28    -0.737162991937E+02   -0.88873E-05   -0.10852E-07    23   0.164E-03    0.262E-04
RMM:  29    -0.737163008354E+02   -0.16417E-05   -0.44419E-08    20   0.143E-03    0.239E-04
RMM:  30    -0.737163025917E+02   -0.17562E-05   -0.37650E-08    18   0.117E-03    0.191E-04
RMM:  31    -0.737163032578E+02   -0.66614E-06    0.00000E+00    14   0.902E-04
   1 F= -.73801610E+02 E0= -.73801804E+02  d E =-.738016E+02
