<?xml version="1.0" encoding="ISO-8859-1"?>
<modeling>
 <generator>
  <i name="program" type="string">vasp </i>
  <i name="version" type="string">5.3.2  </i>
  <i name="subversion" type="string">13Sep12 (build Oct  1 2014 13:46:58) complex                          parallel </i>
  <i name="platform" type="string">LinuxIFC </i>
  <i name="date" type="string">2015 11 22 </i>
  <i name="time" type="string">18:50:14 </i>
 </generator>
 <incar>
  <i type="int" name="ISTART">     0</i>
  <i type="string" name="PREC">med</i>
  <i type="string" name="ALGO"> Fast</i>
  <i type="int" name="ISPIN">     1</i>
  <i type="int" name="NELM">   400</i>
  <i type="int" name="NELMDL">   -10</i>
  <i type="int" name="IBRION">     2</i>
  <i type="int" name="NFREE">     2</i>
  <i name="EDIFF">      0.00000100</i>
  <i name="EDIFFG">     -0.01000000</i>
  <i type="int" name="NSW">   200</i>
  <i type="int" name="ISIF">     2</i>
  <i type="int" name="ISYM">     0</i>
  <i name="ENCUT">    400.00000000</i>
  <i name="POTIM">      0.50000000</i>
  <i type="string" name="LREAL"> auto</i>
  <v name="ROPT">     -0.00020000     -0.00020000</v>
  <i type="logical" name="LPLANE"> T  </i>
  <i type="int" name="ISMEAR">     1</i>
  <i name="SIGMA">      0.01000000</i>
  <i type="int" name="NWRITE">     1</i>
  <i type="logical" name="LWAVE"> F  </i>
  <i type="logical" name="LCHARG"> F  </i>
  <i type="logical" name="LVTOT"> F  </i>
  <i type="int" name="NELM">   400</i>
  <i type="int" name="VOSKOWN">     1</i>
 </incar>
 <kpoints>
  <generation param="Monkhorst-Pack">
   <v type="int" name="divisions">       1        1        1 </v>
   <v name="usershift">      0.00000000       0.00000000       0.00000000 </v>
   <v name="genvec1">      1.00000000       0.00000000       0.00000000 </v>
   <v name="genvec2">      0.00000000       1.00000000       0.00000000 </v>
   <v name="genvec3">      0.00000000       0.00000000       1.00000000 </v>
   <v name="shift">      0.00000000       0.00000000       0.00000000 </v>
  </generation>
  <varray name="kpointlist" >
   <v>       0.00000000       0.00000000       0.00000000 </v>
  </varray>
  <varray name="weights" >
   <v>       1.00000000 </v>
  </varray>
 </kpoints>
 <parameters>
  <separator name="general" >
   <i type="string" name="SYSTEM">unknown system</i>
   <i type="logical" name="LCOMPAT"> F  </i>
  </separator>
  <separator name="electronic" >
   <i type="string" name="PREC">med</i>
   <i name="ENMAX">    400.00000000</i>
   <i name="ENAUG">    644.87300000</i>
   <i name="EDIFF">      0.00000100</i>
   <i type="int" name="IALGO">    68</i>
   <i type="int" name="IWAVPR">    11</i>
   <i type="int" name="NBANDS">    21</i>
   <i name="NELECT">     28.00000000</i>
   <i type="int" name="TURBO">     0</i>
   <i type="int" name="IRESTART">     0</i>
   <i type="int" name="NREBOOT">     0</i>
   <i type="int" name="NMIN">     0</i>
   <i name="EREF">      0.00000000</i>
   <separator name="electronic smearing" >
    <i type="int" name="ISMEAR">     1</i>
    <i name="SIGMA">      0.01000000</i>
    <i name="KSPACING">      0.50000000</i>
    <i type="logical" name="KGAMMA"> T  </i>
   </separator>
   <separator name="electronic projectors" >
    <i type="logical" name="LREAL"> T  </i>
    <v name="ROPT">     -0.00020000     -0.00020000</v>
    <i type="int" name="LMAXPAW">  -100</i>
    <i type="int" name="LMAXMIX">     2</i>
    <i type="logical" name="NLSPLINE"> F  </i>
   </separator>
   <separator name="electronic startup" >
    <i type="int" name="ISTART">     0</i>
    <i type="int" name="ICHARG">     2</i>
    <i type="int" name="INIWAV">     1</i>
   </separator>
   <separator name="electronic spin" >
    <i type="int" name="ISPIN">     1</i>
    <i type="logical" name="LNONCOLLINEAR"> F  </i>
    <v name="MAGMOM">      1.00000000      1.00000000      1.00000000      1.00000000      1.00000000      1.00000000      1.00000000      1.00000000      1.00000000      1.00000000      1.00000000      1.00000000      1.00000000</v>
    <i name="NUPDOWN">     -1.00000000</i>
    <i type="logical" name="LSORBIT"> F  </i>
    <v name="SAXIS">      0.00000000      0.00000000      1.00000000</v>
    <i type="logical" name="LSPIRAL"> F  </i>
    <v name="QSPIRAL">      0.00000000      0.00000000      0.00000000</v>
    <i type="logical" name="LZEROZ"> F  </i>
   </separator>
   <separator name="electronic exchange-correlation" >
    <i type="logical" name="LASPH"> F  </i>
    <i type="logical" name="LMETAGGA"> F  </i>
   </separator>
   <separator name="electronic convergence" >
    <i type="int" name="NELM">   400</i>
    <i type="int" name="NELMDL">   -10</i>
    <i type="int" name="NELMIN">     2</i>
    <i name="ENINI">    400.00000000</i>
    <separator name="electronic convergence detail" >
     <i type="logical" name="LDIAG"> T  </i>
     <i type="logical" name="LSUBROT"> T  </i>
     <i name="WEIMIN">      0.00100000</i>
     <i name="EBREAK">      0.00000001</i>
     <i name="DEPER">      0.30000000</i>
     <i type="int" name="NRMM">     4</i>
     <i name="TIME">      0.40000000</i>
    </separator>
   </separator>
   <separator name="electronic mixer" >
    <i name="AMIX">      0.40000000</i>
    <i name="BMIX">      1.00000000</i>
    <i name="AMIN">      0.10000000</i>
    <i name="AMIX_MAG">      1.60000000</i>
    <i name="BMIX_MAG">      1.00000000</i>
    <separator name="electronic mixer details" >
     <i type="int" name="IMIX">     4</i>
     <i type="int" name="MAXMIX">   -45</i>
     <i name="WC">    100.00000000</i>
     <i type="int" name="INIMIX">     1</i>
     <i type="int" name="MIXPRE">     1</i>
     <i type="int" name="MREMOVE">     5</i>
    </separator>
   </separator>
   <separator name="electronic dipolcorrection" >
    <i type="logical" name="LDIPOL"> F  </i>
    <i type="logical" name="LMONO"> F  </i>
    <i type="int" name="IDIPOL">     0</i>
    <i name="EPSILON">      1.00000000</i>
    <v name="DIPOL">   -100.00000000   -100.00000000   -100.00000000</v>
    <i name="EFIELD">      0.00000000</i>
   </separator>
  </separator>
  <separator name="grids" >
   <i type="int" name="NGX">    98</i>
   <i type="int" name="NGY">    98</i>
   <i type="int" name="NGZ">    98</i>
   <i type="int" name="NGXF">   168</i>
   <i type="int" name="NGYF">   168</i>
   <i type="int" name="NGZF">   168</i>
   <i type="logical" name="ADDGRID"> F  </i>
  </separator>
  <separator name="ionic" >
   <i type="int" name="NSW">   200</i>
   <i type="int" name="IBRION">     2</i>
   <i type="int" name="ISIF">     2</i>
   <i name="PSTRESS">      0.00000000</i>
   <i name="EDIFFG">     -0.01000000</i>
   <i type="int" name="NFREE">     2</i>
   <i name="POTIM">      0.50000000</i>
   <i name="SMASS">     -3.00000000</i>
   <i name="SCALEE">      1.00000000</i>
  </separator>
  <separator name="ionic md" >
   <i name="TEBEG">      0.00010000</i>
   <i name="TEEND">      0.00010000</i>
   <i type="int" name="NBLOCK">     1</i>
   <i type="int" name="KBLOCK">   200</i>
   <i type="int" name="NPACO">   256</i>
   <i name="APACO">     16.00000000</i>
  </separator>
  <separator name="symmetry" >
   <i type="int" name="ISYM">     0</i>
   <i name="SYMPREC">      0.00001000</i>
  </separator>
  <separator name="dos" >
   <i type="logical" name="LORBIT"> F  </i>
   <v name="RWIGS">     -1.00000000     -1.00000000</v>
   <i type="int" name="NEDOS">   301</i>
   <i name="EMIN">     10.00000000</i>
   <i name="EMAX">    -10.00000000</i>
   <i name="EFERMI">      0.00000000</i>
  </separator>
  <separator name="writing" >
   <i type="int" name="NWRITE">     1</i>
   <i type="logical" name="LWAVE"> F  </i>
   <i type="logical" name="LCHARG"> F  </i>
   <i type="logical" name="LPARD"> F  </i>
   <i type="logical" name="LVTOT"> F  </i>
   <i type="logical" name="LVHAR"> F  </i>
   <i type="logical" name="LELF"> F  </i>
   <i type="logical" name="LOPTICS"> F  </i>
   <v name="STM">      0.00000000      0.00000000      0.00000000      0.00000000      0.00000000      0.00000000      0.00000000</v>
  </separator>
  <separator name="performance" >
   <i type="int" name="NPAR">     1</i>
   <i type="int" name="NSIM">     4</i>
   <i type="int" name="NBLK">    -1</i>
   <i type="logical" name="LPLANE"> T  </i>
   <i type="logical" name="LSCALAPACK"> F  </i>
   <i type="logical" name="LSCAAWARE"> F  </i>
   <i type="logical" name="LSCALU"> F  </i>
   <i type="logical" name="LASYNC"> F  </i>
   <i type="logical" name="LORBITALREAL"> F  </i>
  </separator>
  <separator name="miscellaneous" >
   <i type="int" name="IDIOT">     3</i>
   <i type="logical" name="LMUSIC"> F  </i>
   <v name="POMASS">     12.01100000      1.00000000</v>
   <v name="DARWINR">      0.00000000      0.00000000</v>
   <v name="DARWINV">      1.00000000      1.00000000</v>
   <i type="logical" name="LCORR"> T  </i>
  </separator>
  <i type="logical" name="GGA_COMPAT"> T  </i>
  <i type="logical" name="LBERRY"> F  </i>
  <i type="int" name="ICORELEVEL">     0</i>
  <i type="logical" name="LDAU"> F  </i>
  <i type="int" name="I_CONSTRAINED_M">     0</i>
  <separator name="electronic exchange-correlation" >
   <i type="string" name="GGA">--</i>
   <i type="int" name="VOSKOWN">     1</i>
   <i type="logical" name="LHFCALC"> F  </i>
   <i type="string" name="PRECFOCK"></i>
   <i type="logical" name="LSYMGRAD"> F  </i>
   <i type="logical" name="LHFONE"> F  </i>
   <i type="logical" name="LRHFCALC"> F  </i>
   <i type="logical" name="LTHOMAS"> F  </i>
   <i type="logical" name="LMODELHF"> F  </i>
   <i name="ENCUT4O">     -1.00000000</i>
   <i type="int" name="EXXOEP">     0</i>
   <i type="int" name="FOURORBIT">     0</i>
   <i name="AEXX">      0.00000000</i>
   <i name="HFALPHA">      0.00000000</i>
   <i name="MCALPHA">      0.00000000</i>
   <i name="ALDAX">      1.00000000</i>
   <i name="AGGAX">      1.00000000</i>
   <i name="ALDAC">      1.00000000</i>
   <i name="AGGAC">      1.00000000</i>
   <i type="int" name="NKREDX">     1</i>
   <i type="int" name="NKREDY">     1</i>
   <i type="int" name="NKREDZ">     1</i>
   <i type="logical" name="SHIFTRED"> F  </i>
   <i type="logical" name="ODDONLY"> F  </i>
   <i type="logical" name="EVENONLY"> F  </i>
   <i type="int" name="LMAXFOCK">     0</i>
   <i type="int" name="NMAXFOCKAE">     0</i>
   <i type="logical" name="LFOCKAEDFT"> F  </i>
   <i name="HFSCREEN">      0.00000000</i>
   <i name="HFSCREENC">      0.00000000</i>
   <i type="int" name="NBANDSGWLOW">     0</i>
  </separator>
  <separator name="vdW DFT" >
   <i type="logical" name="LUSE_VDW"> F  </i>
   <i name="Zab_VDW">     -0.84910000</i>
   <i name="PARAM1">      0.12340000</i>
   <i name="PARAM2">      1.00000000</i>
   <i name="PARAM3">      0.00000000</i>
  </separator>
  <separator name="model GW" >
   <i type="int" name="MODEL_GW">     0</i>
   <i name="MODEL_EPS0">    369.23076923</i>
   <i name="MODEL_ALPHA">      1.00000000</i>
  </separator>
  <separator name="linear response parameters" >
   <i type="logical" name="LEPSILON"> F  </i>
   <i type="logical" name="LRPA"> F  </i>
   <i type="logical" name="LNABLA"> F  </i>
   <i type="logical" name="LVEL"> F  </i>
   <i type="int" name="KINTER">     0</i>
   <i name="CSHIFT">      0.10000000</i>
   <i name="OMEGAMAX">     -1.00000000</i>
   <i name="DEG_THRESHOLD">      0.00200000</i>
  </separator>
  <separator name="orbital magnetization" >
   <i type="logical" name="NUCIND"> F  </i>
   <v name="MAGPOS">      0.00000000      0.00000000      0.00000000</v>
   <i type="logical" name="LNICSALL"> T  </i>
   <i type="logical" name="ORBITALMAG"> F  </i>
   <i type="logical" name="LMAGBLOCH"> F  </i>
   <i type="logical" name="LCHIMAG"> F  </i>
   <i type="logical" name="LGAUGE"> T  </i>
   <i type="int" name="MAGATOM">     0</i>
   <v name="MAGDIPOL">      0.00000000      0.00000000      0.00000000</v>
   <v name="AVECCONST">      0.00000000      0.00000000      0.00000000</v>
  </separator>
  <separator name="response functions" >
   <i type="logical" name="LADDER"> F  </i>
   <i type="logical" name="LHARTREE"> T  </i>
   <i type="int" name="IBSE">     0</i>
   <i type="logical" name="LTCTE"> F  </i>
   <i type="logical" name="LTETE"> F  </i>
   <i type="logical" name="LTRIPLET"> F  </i>
   <i type="logical" name="LFXCEPS"> F  </i>
   <i type="logical" name="L2ORDER"> F  </i>
   <i type="logical" name="LUSEW"> F  </i>
   <i name="ENCUTGW">     -2.00000000</i>
   <i name="ENCUTGWSOFT">     -2.00000000</i>
   <i name="ENCUTLF">     -1.00000000</i>
   <i type="int" name="LMAXMP2">    -1</i>
   <i name="SCISSOR">      0.00000000</i>
   <i type="int" name="NOMEGA">     0</i>
   <i type="int" name="NOMEGAR">     0</i>
   <i type="int" name="NBANDSGW">    -1</i>
   <i type="int" name="NBANDSO">    -1</i>
   <i type="int" name="NBANDSV">    -1</i>
   <i type="int" name="NELM">   400</i>
   <i type="int" name="DIM">     3</i>
   <i type="int" name="ANTIRES">     0</i>
   <i name="OMEGAMAX">    -30.00000000</i>
   <i name="OMEGATL">   -200.00000000</i>
   <i type="int" name="OMEGAGRID">     0</i>
   <i name="CSHIFT">     -0.10000000</i>
   <i type="logical" name="SELFENERGY"> F  </i>
   <i type="logical" name="LSPECTRAL"> F  </i>
   <i type="logical" name="ODDONLYGW"> F  </i>
   <i type="logical" name="EVENONLYGW"> F  </i>
   <i type="int" name="NKREDLFX">     1</i>
   <i type="int" name="NKREDLFY">     1</i>
   <i type="int" name="NKREDLFZ">     1</i>
   <i type="int" name="MAXMEM">  1800</i>
   <i type="int" name="TELESCOPE">     0</i>
  </separator>
 </parameters>
 <atominfo>
  <atoms>      13 </atoms>
  <types>       2 </types>
  <array name="atoms" >
   <dimension dim="1">ion</dimension>
   <field type="string">element</field>
   <field type="int">atomtype</field>
   <set>
    <rc><c>C </c><c>   1</c></rc>
    <rc><c>C </c><c>   1</c></rc>
    <rc><c>C </c><c>   1</c></rc>
    <rc><c>C </c><c>   1</c></rc>
    <rc><c>C </c><c>   1</c></rc>
    <rc><c>H </c><c>   2</c></rc>
    <rc><c>H </c><c>   2</c></rc>
    <rc><c>H </c><c>   2</c></rc>
    <rc><c>H </c><c>   2</c></rc>
    <rc><c>H </c><c>   2</c></rc>
    <rc><c>H </c><c>   2</c></rc>
    <rc><c>H </c><c>   2</c></rc>
    <rc><c>H </c><c>   2</c></rc>
   </set>
  </array>
  <array name="atomtypes" >
   <dimension dim="1">type</dimension>
   <field type="int">atomspertype</field>
   <field type="string">element</field>
   <field>mass</field>
   <field>valence</field>
   <field type="string">pseudopotential</field>
   <set>
    <rc><c>   5</c><c>C </c><c>     12.01100000</c><c>      4.00000000</c><c>  PAW_PBE C 08Apr2002                   </c></rc>
    <rc><c>   8</c><c>H </c><c>      1.00000000</c><c>      1.00000000</c><c>  PAW_PBE H 15Jun2001                   </c></rc>
   </set>
  </array>
 </atominfo>
 <structure name="initialpos" >
  <crystal>
   <varray name="basis" >
    <v>      16.32993162      -8.16496581      -8.16496581 </v>
    <v>       0.00000000      14.14213562     -14.14213562 </v>
    <v>      11.54700538      11.54700538      11.54700538 </v>
   </varray>
   <i name="volume">   8000.00000000 </i>
   <varray name="rec_basis" >
    <v>       0.04082483      -0.02041241      -0.02041241 </v>
    <v>       0.00000000       0.03535534      -0.03535534 </v>
    <v>       0.02886751       0.02886751       0.02886751 </v>
   </varray>
  </crystal>
  <varray name="positions" >
   <v>       0.41877331       0.52627098       0.63374060 </v>
   <v>       0.38362636       0.47154755       0.65096915 </v>
   <v>       0.46883919       0.55786760       0.67552044 </v>
   <v>       0.50424983       0.61240568       0.65784775 </v>
   <v>       0.55620345       0.64553623       0.69997197 </v>
   <v>       0.34647887       0.44963913       0.61760505 </v>
   <v>       0.39115289       0.44703916       0.69924337 </v>
   <v>       0.47784296       0.53511524       0.72464653 </v>
   <v>       0.49472329       0.63468511       0.60862484 </v>
   <v>       0.40983367       0.54939740       0.58483752 </v>
   <v>       0.56230045       0.62025693       0.74841545 </v>
   <v>       0.54346579       0.69833047       0.70961828 </v>
   <v>       0.60518540       0.64599993       0.67457811 </v>
  </varray>
  <varray name="selective"  type="logical" >
   <v type="logical" >  T  T  T </v>
   <v type="logical" >  T  T  T </v>
   <v type="logical" >  T  T  T </v>
   <v type="logical" >  T  T  T </v>
   <v type="logical" >  T  T  T </v>
   <v type="logical" >  T  T  T </v>
   <v type="logical" >  T  T  T </v>
   <v type="logical" >  T  T  T </v>
   <v type="logical" >  T  T  T </v>
   <v type="logical" >  T  T  T </v>
   <v type="logical" >  T  T  T </v>
   <v type="logical" >  T  T  T </v>
   <v type="logical" >  T  T  T </v>
  </varray>
  <nose>
   <v>      -3.00000000       0.00000000       0.00010000       0.00010000 </v>
  </nose>
 </structure>
 <calculation>
  <scstep>
   <time name="dav">    0.51    0.53</time>
   <time name="total">    0.87    0.90</time>
   <energy>
    <i name="alphaZ">      0.42760457 </i>
    <i name="ewald">   1480.56461612 </i>
    <i name="hartreedc">  -2006.36246810 </i>
    <i name="XCdc">     82.84734199 </i>
    <i name="pawpsdc">    559.68245139 </i>
    <i name="pawaedc">   -562.60050270 </i>
    <i name="eentropy">      0.00057979 </i>
    <i name="bandstr">   -210.75691838 </i>
    <i name="atom">    835.46518068 </i>
    <i name="e_fr_energy">    179.26788536 </i>
    <i name="e_wo_entrp">    179.26730557 </i>
    <i name="e_0_energy">    179.26769210 </i>
   </energy>
  </scstep>
  <scstep>
   <time name="dav">    0.63    0.63</time>
   <time name="total">    0.63    0.66</time>
   <energy>
    <i name="e_fr_energy">     29.06566120 </i>
    <i name="e_wo_entrp">     29.06508141 </i>
    <i name="e_0_energy">     29.06546794 </i>
   </energy>
  </scstep>
  <scstep>
   <time name="dav">    0.51    0.51</time>
   <time name="total">    0.51    0.53</time>
   <energy>
    <i name="e_fr_energy">    -65.64392607 </i>
    <i name="e_wo_entrp">    -65.64450587 </i>
    <i name="e_0_energy">    -65.64411934 </i>
   </energy>
  </scstep>
  <scstep>
   <time name="dav">    0.46    0.46</time>
   <time name="total">    0.46    0.49</time>
   <energy>
    <i name="e_fr_energy">    -81.80441600 </i>
    <i name="e_wo_entrp">    -81.80441600 </i>
    <i name="e_0_energy">    -81.80441600 </i>
   </energy>
  </scstep>
  <scstep>
   <time name="dav">    0.47    0.48</time>
   <time name="total">    0.48    0.50</time>
   <energy>
    <i name="e_fr_energy">    -82.33249269 </i>
    <i name="e_wo_entrp">    -82.33307248 </i>
    <i name="e_0_energy">    -82.33268596 </i>
   </energy>
  </scstep>
  <scstep>
   <time name="dav">    0.51    0.51</time>
   <time name="total">    0.51    0.54</time>
   <energy>
    <i name="e_fr_energy">    -82.33613600 </i>
    <i name="e_wo_entrp">    -82.33671579 </i>
    <i name="e_0_energy">    -82.33632927 </i>
   </energy>
  </scstep>
  <scstep>
   <time name="dav">    0.56    0.57</time>
   <time name="total">    0.57    0.59</time>
   <energy>
    <i name="e_fr_energy">    -82.33622147 </i>
    <i name="e_wo_entrp">    -82.33680126 </i>
    <i name="e_0_energy">    -82.33641473 </i>
   </energy>
  </scstep>
  <scstep>
   <time name="dav">    0.51    0.51</time>
   <time name="total">    0.51    0.54</time>
   <energy>
    <i name="e_fr_energy">    -82.33622518 </i>
    <i name="e_wo_entrp">    -82.33680497 </i>
    <i name="e_0_energy">    -82.33641844 </i>
   </energy>
  </scstep>
  <scstep>
   <time name="dav">    0.57    0.57</time>
   <time name="total">    0.57    0.59</time>
   <energy>
    <i name="e_fr_energy">    -82.33622539 </i>
    <i name="e_wo_entrp">    -82.33680518 </i>
    <i name="e_0_energy">    -82.33641865 </i>
   </energy>
  </scstep>
  <scstep>
   <time name="dav">    0.46    0.46</time>
   <time name="total">    0.51    0.53</time>
   <energy>
    <i name="e_fr_energy">    -82.33622540 </i>
    <i name="e_wo_entrp">    -82.33680519 </i>
    <i name="e_0_energy">    -82.33641866 </i>
   </energy>
  </scstep>
  <scstep>
   <time name="diag">    0.06    0.06</time>
   <time name="diis">    0.30    0.30</time>
   <time name="orth">    0.00    0.00</time>
   <time name="total">    0.64    0.67</time>
   <energy>
    <i name="e_fr_energy">    -75.59374233 </i>
    <i name="e_wo_entrp">    -75.59374233 </i>
    <i name="e_0_energy">    -75.59374233 </i>
   </energy>
  </scstep>
  <scstep>
   <time name="diag">    0.06    0.06</time>
   <time name="diis">    0.29    0.29</time>
   <time name="orth">    0.00    0.00</time>
   <time name="total">    0.64    0.64</time>
   <energy>
    <i name="e_fr_energy">    -73.92941691 </i>
    <i name="e_wo_entrp">    -73.92999670 </i>
    <i name="e_0_energy">    -73.92961018 </i>
   </energy>
  </scstep>
  <scstep>
   <time name="diag">    0.06    0.06</time>
   <time name="diis">    0.30    0.30</time>
   <time name="orth">    0.00    0.00</time>
   <time name="total">    0.65    0.65</time>
   <energy>
    <i name="e_fr_energy">    -73.72296988 </i>
    <i name="e_wo_entrp">    -73.72354967 </i>
    <i name="e_0_energy">    -73.72316315 </i>
   </energy>
  </scstep>
  <scstep>
   <time name="diag">    0.06    0.06</time>
   <time name="diis">    0.31    0.31</time>
   <time name="orth">    0.00    0.00</time>
   <time name="total">    0.66    0.66</time>
   <energy>
    <i name="e_fr_energy">    -73.70327791 </i>
    <i name="e_wo_entrp">    -73.70385770 </i>
    <i name="e_0_energy">    -73.70347117 </i>
   </energy>
  </scstep>
  <scstep>
   <time name="diag">    0.06    0.06</time>
   <time name="diis">    0.29    0.29</time>
   <time name="orth">    0.00    0.00</time>
   <time name="total">    0.66    0.66</time>
   <energy>
    <i name="e_fr_energy">    -73.69637110 </i>
    <i name="e_wo_entrp">    -73.69695089 </i>
    <i name="e_0_energy">    -73.69656437 </i>
   </energy>
  </scstep>
  <scstep>
   <time name="diag">    0.06    0.06</time>
   <time name="diis">    0.29    0.30</time>
   <time name="orth">    0.00    0.00</time>
   <time name="total">    0.67    0.67</time>
   <energy>
    <i name="e_fr_energy">    -73.69549254 </i>
    <i name="e_wo_entrp">    -73.69607233 </i>
    <i name="e_0_energy">    -73.69568580 </i>
   </energy>
  </scstep>
  <scstep>
   <time name="diag">    0.07    0.07</time>
   <time name="diis">    0.29    0.29</time>
   <time name="orth">    0.00    0.00</time>
   <time name="total">    0.70    0.70</time>
   <energy>
    <i name="e_fr_energy">    -73.69554272 </i>
    <i name="e_wo_entrp">    -73.69612251 </i>
    <i name="e_0_energy">    -73.69573598 </i>
   </energy>
  </scstep>
  <scstep>
   <time name="diag">    0.07    0.07</time>
   <time name="diis">    0.30    0.30</time>
   <time name="orth">    0.00    0.00</time>
   <time name="total">    0.72    0.72</time>
   <energy>
    <i name="e_fr_energy">    -73.70299063 </i>
    <i name="e_wo_entrp">    -73.70357042 </i>
    <i name="e_0_energy">    -73.70318389 </i>
   </energy>
  </scstep>
  <scstep>
   <time name="diag">    0.07    0.08</time>
   <time name="diis">    0.32    0.33</time>
   <time name="orth">    0.00    0.00</time>
   <time name="total">    0.77    0.79</time>
   <energy>
    <i name="e_fr_energy">    -73.70948794 </i>
    <i name="e_wo_entrp">    -73.70948794 </i>
    <i name="e_0_energy">    -73.70948794 </i>
   </energy>
  </scstep>
  <scstep>
   <time name="diag">    0.07    0.07</time>
   <time name="diis">    0.32    0.32</time>
   <time name="orth">    0.00    0.00</time>
   <time name="total">    0.78    0.78</time>
   <energy>
    <i name="e_fr_energy">    -73.71390887 </i>
    <i name="e_wo_entrp">    -73.71448867 </i>
    <i name="e_0_energy">    -73.71410214 </i>
   </energy>
  </scstep>
  <scstep>
   <time name="diag">    0.08    0.08</time>
   <time name="diis">    0.32    0.32</time>
   <time name="orth">    0.00    0.00</time>
   <time name="total">    0.79    0.79</time>
   <energy>
    <i name="e_fr_energy">    -73.71476967 </i>
    <i name="e_wo_entrp">    -73.71534947 </i>
    <i name="e_0_energy">    -73.71496294 </i>
   </energy>
  </scstep>
  <scstep>
   <time name="diag">    0.07    0.07</time>
   <time name="diis">    0.31    0.31</time>
   <time name="orth">    0.00    0.00</time>
   <time name="total">    0.78    0.78</time>
   <energy>
    <i name="e_fr_energy">    -73.71581026 </i>
    <i name="e_wo_entrp">    -73.71639005 </i>
    <i name="e_0_energy">    -73.71600352 </i>
   </energy>
  </scstep>
  <scstep>
   <time name="diag">    0.07    0.07</time>
   <time name="diis">    0.32    0.32</time>
   <time name="orth">    0.00    0.00</time>
   <time name="total">    0.78    0.79</time>
   <energy>
    <i name="e_fr_energy">    -73.71591488 </i>
    <i name="e_wo_entrp">    -73.71649467 </i>
    <i name="e_0_energy">    -73.71610815 </i>
   </energy>
  </scstep>
  <scstep>
   <time name="diag">    0.07    0.08</time>
   <time name="diis">    0.30    0.30</time>
   <time name="orth">    0.00    0.00</time>
   <time name="total">    0.77    0.77</time>
   <energy>
    <i name="e_fr_energy">    -73.71615078 </i>
    <i name="e_wo_entrp">    -73.71673057 </i>
    <i name="e_0_energy">    -73.71634404 </i>
   </energy>
  </scstep>
  <scstep>
   <time name="diag">    0.07    0.08</time>
   <time name="diis">    0.23    0.23</time>
   <time name="orth">    0.00    0.00</time>
   <time name="total">    0.70    0.70</time>
   <energy>
    <i name="e_fr_energy">    -73.71621791 </i>
    <i name="e_wo_entrp">    -73.71679770 </i>
    <i name="e_0_energy">    -73.71641117 </i>
   </energy>
  </scstep>
  <scstep>
   <time name="diag">    0.08    0.08</time>
   <time name="diis">    0.23    0.23</time>
   <time name="orth">    0.00    0.00</time>
   <time name="total">    0.70    0.70</time>
   <energy>
    <i name="e_fr_energy">    -73.71627811 </i>
    <i name="e_wo_entrp">    -73.71685790 </i>
    <i name="e_0_energy">    -73.71647137 </i>
   </energy>
  </scstep>
  <scstep>
   <time name="diag">    0.08    0.08</time>
   <time name="diis">    0.22    0.22</time>
   <time name="orth">    0.00    0.00</time>
   <time name="total">    0.70    0.70</time>
   <energy>
    <i name="e_fr_energy">    -73.71629031 </i>
    <i name="e_wo_entrp">    -73.71687010 </i>
    <i name="e_0_energy">    -73.71648357 </i>
   </energy>
  </scstep>
  <scstep>
   <time name="diag">    0.08    0.08</time>
   <time name="diis">    0.20    0.20</time>
   <time name="orth">    0.00    0.00</time>
   <time name="total">    0.69    0.69</time>
   <energy>
    <i name="e_fr_energy">    -73.71629919 </i>
    <i name="e_wo_entrp">    -73.71687898 </i>
    <i name="e_0_energy">    -73.71649246 </i>
   </energy>
  </scstep>
  <scstep>
   <time name="diag">    0.08    0.08</time>
   <time name="diis">    0.19    0.19</time>
   <time name="orth">    0.00    0.00</time>
   <time name="total">    0.68    0.68</time>
   <energy>
    <i name="e_fr_energy">    -73.71630084 </i>
    <i name="e_wo_entrp">    -73.71688063 </i>
    <i name="e_0_energy">    -73.71649410 </i>
   </energy>
  </scstep>
  <scstep>
   <time name="diag">    0.07    0.07</time>
   <time name="diis">    0.19    0.19</time>
   <time name="orth">    0.00    0.00</time>
   <time name="total">    0.68    0.68</time>
   <energy>
    <i name="e_fr_energy">    -73.71630259 </i>
    <i name="e_wo_entrp">    -73.71688238 </i>
    <i name="e_0_energy">    -73.71649586 </i>
   </energy>
  </scstep>
  <scstep>
   <time name="diag">    0.08    0.08</time>
   <time name="diis">    0.17    0.18</time>
   <time name="orth">    0.00    0.00</time>
   <time name="total">    0.59    0.59</time>
   <energy>
    <i name="alphaZ">      0.42760457 </i>
    <i name="ewald">   1480.56461612 </i>
    <i name="hartreedc">  -2148.21158288 </i>
    <i name="XCdc">     89.99717327 </i>
    <i name="pawpsdc">   2146.80173745 </i>
    <i name="pawaedc">  -2150.39123584 </i>
    <i name="eentropy">      0.00057979 </i>
    <i name="bandstr">   -328.37037642 </i>
    <i name="atom">    835.46518068 </i>
    <i name="e_fr_energy">    -73.71630326 </i>
    <i name="e_wo_entrp">    -73.71688305 </i>
    <i name="e_0_energy">    -73.71649652 </i>
   </energy>
  </scstep>
  <structure>
   <crystal>
    <varray name="basis" >
     <v>      16.32993162      -8.16496581      -8.16496581 </v>
     <v>       0.00000000      14.14213562     -14.14213562 </v>
     <v>      11.54700538      11.54700538      11.54700538 </v>
    </varray>
    <i name="volume">   8000.00000000 </i>
    <varray name="rec_basis" >
     <v>       0.04082483      -0.02041241      -0.02041241 </v>
     <v>       0.00000000       0.03535534      -0.03535534 </v>
     <v>       0.02886751       0.02886751       0.02886751 </v>
    </varray>
   </crystal>
   <varray name="positions" >
    <v>       0.41877331       0.52627098       0.63374060 </v>
    <v>       0.38362636       0.47154755       0.65096915 </v>
    <v>       0.46883919       0.55786760       0.67552044 </v>
    <v>       0.50424983       0.61240568       0.65784775 </v>
    <v>       0.55620345       0.64553623       0.69997197 </v>
    <v>       0.34647887       0.44963913       0.61760505 </v>
    <v>       0.39115289       0.44703916       0.69924337 </v>
    <v>       0.47784296       0.53511524       0.72464653 </v>
    <v>       0.49472329       0.63468511       0.60862484 </v>
    <v>       0.40983367       0.54939740       0.58483752 </v>
    <v>       0.56230045       0.62025693       0.74841545 </v>
    <v>       0.54346579       0.69833047       0.70961828 </v>
    <v>       0.60518540       0.64599993       0.67457811 </v>
   </varray>
  </structure>
  <varray name="forces" >
   <v>       0.00321485      -0.00121740       0.00019141 </v>
   <v>       0.00085686       0.00223238       0.00568034 </v>
   <v>      -0.00202045       0.00201859       0.00640994 </v>
   <v>       0.00170212      -0.00113620      -0.00435323 </v>
   <v>       0.00536795      -0.00033786       0.00252966 </v>
   <v>      -0.00173171       0.00036686      -0.00325798 </v>
   <v>       0.00114871       0.00137723       0.00009175 </v>
   <v>       0.00376638      -0.00229027       0.00240402 </v>
   <v>      -0.00359681      -0.00192726      -0.00453289 </v>
   <v>      -0.00286660      -0.00209049      -0.00500238 </v>
   <v>      -0.00030207      -0.00020075       0.00102563 </v>
   <v>      -0.00336903       0.00373036      -0.00052121 </v>
   <v>      -0.00217021      -0.00052519      -0.00066506 </v>
  </varray>
  <varray name="stress" >
   <v>      -0.21316909       0.01159021      -0.00018223 </v>
   <v>       0.01159021      -0.23730685      -0.00509461 </v>
   <v>      -0.00018224      -0.00509461      -0.19815663 </v>
  </varray>
  <energy>
   <i name="e_fr_energy">    -73.80161049 </i>
   <i name="e_wo_entrp">    -73.80180375 </i>
   <i name="e_0_energy">      0.00057979 </i>
  </energy>
  <time name="totalsc">   21.66   21.98</time>
  <eigenvalues>
   <array>
    <dimension dim="1">band</dimension>
    <dimension dim="2">kpoint</dimension>
    <dimension dim="3">spin</dimension>
    <field>eigene</field>
    <field>occ</field>
    <set>
     <set comment="spin 1">
      <set comment="kpoint 1">
       <r>  -20.0222    1.0000 </r>
       <r>  -18.6887    1.0000 </r>
       <r>  -16.7626    1.0000 </r>
       <r>  -14.1114    1.0000 </r>
       <r>  -13.4347    1.0000 </r>
       <r>  -11.4669    1.0000 </r>
       <r>  -10.8268    1.0000 </r>
       <r>  -10.0409    1.0000 </r>
       <r>   -9.7765    1.0000 </r>
       <r>   -9.1225    1.0000 </r>
       <r>   -8.6152    1.0000 </r>
       <r>   -8.1386    1.0000 </r>
       <r>   -7.7340    1.0000 </r>
       <r>   -5.4441    1.0000 </r>
       <r>   -1.6273    0.0000 </r>
       <r>   -0.3733    0.0000 </r>
       <r>   -0.1044    0.0000 </r>
       <r>   -0.0651    0.0000 </r>
       <r>    0.2106    0.0000 </r>
       <r>    0.2416    0.0000 </r>
       <r>    0.3214    0.0000 </r>
      </set>
     </set>
    </set>
   </array>
  </eigenvalues>
  <separator name="orbital magnetization" >
   <v name="MAGDIPOLOUT">      0.00000000      0.00000000      0.00000000</v>
  </separator>
  <dos>
   <i name="efermi">     -5.43570139 </i>
   <total>
    <array>
     <dimension dim="1">gridpoints</dimension>
     <dimension dim="2">spin</dimension>
     <field>energy</field>
     <field>total</field>
     <field>integrated</field>
     <set>
      <set comment="spin 1">
       <r>   -21.0394     0.0000     0.0000 </r>
       <r>   -20.9648     0.0000     0.0000 </r>
       <r>   -20.8902     0.0000     0.0000 </r>
       <r>   -20.8156     0.0000     0.0000 </r>
       <r>   -20.7410     0.0000     0.0000 </r>
       <r>   -20.6664     0.0000     0.0000 </r>
       <r>   -20.5918     0.0000     0.0000 </r>
       <r>   -20.5172     0.0000     0.0000 </r>
       <r>   -20.4426     0.0000     0.0000 </r>
       <r>   -20.3680     0.0000     0.0000 </r>
       <r>   -20.2934     0.0000     0.0000 </r>
       <r>   -20.2188     0.0000     0.0000 </r>
       <r>   -20.1443    -0.0000    -0.0000 </r>
       <r>   -20.0697    -0.0000    -0.0000 </r>
       <r>   -19.9951    26.8236     2.0009 </r>
       <r>   -19.9205     0.0000     2.0000 </r>
       <r>   -19.8459     0.0000     2.0000 </r>
       <r>   -19.7713     0.0000     2.0000 </r>
       <r>   -19.6967     0.0000     2.0000 </r>
       <r>   -19.6221     0.0000     2.0000 </r>
       <r>   -19.5475     0.0000     2.0000 </r>
       <r>   -19.4729     0.0000     2.0000 </r>
       <r>   -19.3983     0.0000     2.0000 </r>
       <r>   -19.3237     0.0000     2.0000 </r>
       <r>   -19.2491     0.0000     2.0000 </r>
       <r>   -19.1745     0.0000     2.0000 </r>
       <r>   -19.1000     0.0000     2.0000 </r>
       <r>   -19.0254     0.0000     2.0000 </r>
       <r>   -18.9508     0.0000     2.0000 </r>
       <r>   -18.8762     0.0000     2.0000 </r>
       <r>   -18.8016    -0.0000     2.0000 </r>
       <r>   -18.7270    -0.0000     2.0000 </r>
       <r>   -18.6524    26.8122     4.0000 </r>
       <r>   -18.5778     0.0000     4.0000 </r>
       <r>   -18.5032     0.0000     4.0000 </r>
       <r>   -18.4286     0.0000     4.0000 </r>
       <r>   -18.3540     0.0000     4.0000 </r>
       <r>   -18.2794     0.0000     4.0000 </r>
       <r>   -18.2048     0.0000     4.0000 </r>
       <r>   -18.1302     0.0000     4.0000 </r>
       <r>   -18.0557     0.0000     4.0000 </r>
       <r>   -17.9811     0.0000     4.0000 </r>
       <r>   -17.9065     0.0000     4.0000 </r>
       <r>   -17.8319     0.0000     4.0000 </r>
       <r>   -17.7573     0.0000     4.0000 </r>
       <r>   -17.6827     0.0000     4.0000 </r>
       <r>   -17.6081     0.0000     4.0000 </r>
       <r>   -17.5335     0.0000     4.0000 </r>
       <r>   -17.4589     0.0000     4.0000 </r>
       <r>   -17.3843     0.0000     4.0000 </r>
       <r>   -17.3097     0.0000     4.0000 </r>
       <r>   -17.2351     0.0000     4.0000 </r>
       <r>   -17.1605     0.0000     4.0000 </r>
       <r>   -17.0859     0.0000     4.0000 </r>
       <r>   -17.0113     0.0000     4.0000 </r>
       <r>   -16.9368     0.0000     4.0000 </r>
       <r>   -16.8622    -0.0000     4.0000 </r>
       <r>   -16.7876    -0.0313     3.9977 </r>
       <r>   -16.7130    26.8434     6.0000 </r>
       <r>   -16.6384     0.0000     6.0000 </r>
       <r>   -16.5638     0.0000     6.0000 </r>
       <r>   -16.4892     0.0000     6.0000 </r>
       <r>   -16.4146     0.0000     6.0000 </r>
       <r>   -16.3400     0.0000     6.0000 </r>
       <r>   -16.2654     0.0000     6.0000 </r>
       <r>   -16.1908     0.0000     6.0000 </r>
       <r>   -16.1162     0.0000     6.0000 </r>
       <r>   -16.0416     0.0000     6.0000 </r>
       <r>   -15.9670     0.0000     6.0000 </r>
       <r>   -15.8925     0.0000     6.0000 </r>
       <r>   -15.8179     0.0000     6.0000 </r>
       <r>   -15.7433     0.0000     6.0000 </r>
       <r>   -15.6687     0.0000     6.0000 </r>
       <r>   -15.5941     0.0000     6.0000 </r>
       <r>   -15.5195     0.0000     6.0000 </r>
       <r>   -15.4449     0.0000     6.0000 </r>
       <r>   -15.3703     0.0000     6.0000 </r>
       <r>   -15.2957     0.0000     6.0000 </r>
       <r>   -15.2211     0.0000     6.0000 </r>
       <r>   -15.1465     0.0000     6.0000 </r>
       <r>   -15.0719     0.0000     6.0000 </r>
       <r>   -14.9973     0.0000     6.0000 </r>
       <r>   -14.9227     0.0000     6.0000 </r>
       <r>   -14.8482     0.0000     6.0000 </r>
       <r>   -14.7736     0.0000     6.0000 </r>
       <r>   -14.6990     0.0000     6.0000 </r>
       <r>   -14.6244     0.0000     6.0000 </r>
       <r>   -14.5498     0.0000     6.0000 </r>
       <r>   -14.4752     0.0000     6.0000 </r>
       <r>   -14.4006     0.0000     6.0000 </r>
       <r>   -14.3260     0.0000     6.0000 </r>
       <r>   -14.2514    -0.0000     6.0000 </r>
       <r>   -14.1768    -0.0000     6.0000 </r>
       <r>   -14.1022    27.1918     8.0283 </r>
       <r>   -14.0276     0.0000     8.0000 </r>
       <r>   -13.9530     0.0000     8.0000 </r>
       <r>   -13.8784     0.0000     8.0000 </r>
       <r>   -13.8038     0.0000     8.0000 </r>
       <r>   -13.7293     0.0000     8.0000 </r>
       <r>   -13.6547     0.0000     8.0000 </r>
       <r>   -13.5801    -0.0000     8.0000 </r>
       <r>   -13.5055    -0.0000     8.0000 </r>
       <r>   -13.4309    21.4463     9.5997 </r>
       <r>   -13.3563     5.3658    10.0000 </r>
       <r>   -13.2817     0.0000    10.0000 </r>
       <r>   -13.2071     0.0000    10.0000 </r>
       <r>   -13.1325     0.0000    10.0000 </r>
       <r>   -13.0579     0.0000    10.0000 </r>
       <r>   -12.9833     0.0000    10.0000 </r>
       <r>   -12.9087     0.0000    10.0000 </r>
       <r>   -12.8341     0.0000    10.0000 </r>
       <r>   -12.7595     0.0000    10.0000 </r>
       <r>   -12.6850     0.0000    10.0000 </r>
       <r>   -12.6104     0.0000    10.0000 </r>
       <r>   -12.5358     0.0000    10.0000 </r>
       <r>   -12.4612     0.0000    10.0000 </r>
       <r>   -12.3866     0.0000    10.0000 </r>
       <r>   -12.3120     0.0000    10.0000 </r>
       <r>   -12.2374     0.0000    10.0000 </r>
       <r>   -12.1628     0.0000    10.0000 </r>
       <r>   -12.0882     0.0000    10.0000 </r>
       <r>   -12.0136     0.0000    10.0000 </r>
       <r>   -11.9390     0.0000    10.0000 </r>
       <r>   -11.8644     0.0000    10.0000 </r>
       <r>   -11.7898     0.0000    10.0000 </r>
       <r>   -11.7152     0.0000    10.0000 </r>
       <r>   -11.6407     0.0000    10.0000 </r>
       <r>   -11.5661    -0.0000    10.0000 </r>
       <r>   -11.4915    -0.0384     9.9971 </r>
       <r>   -11.4169    26.8506    12.0000 </r>
       <r>   -11.3423     0.0000    12.0000 </r>
       <r>   -11.2677     0.0000    12.0000 </r>
       <r>   -11.1931     0.0000    12.0000 </r>
       <r>   -11.1185     0.0000    12.0000 </r>
       <r>   -11.0439     0.0000    12.0000 </r>
       <r>   -10.9693    -0.0000    12.0000 </r>
       <r>   -10.8947    -0.0000    12.0000 </r>
       <r>   -10.8201    25.4313    13.8970 </r>
       <r>   -10.7455     0.0000    14.0000 </r>
       <r>   -10.6709     0.0000    14.0000 </r>
       <r>   -10.5963     0.0000    14.0000 </r>
       <r>   -10.5218     0.0000    14.0000 </r>
       <r>   -10.4472     0.0000    14.0000 </r>
       <r>   -10.3726     0.0000    14.0000 </r>
       <r>   -10.2980     0.0000    14.0000 </r>
       <r>   -10.2234     0.0000    14.0000 </r>
       <r>   -10.1488    -0.0000    14.0000 </r>
       <r>   -10.0742    -0.0003    14.0000 </r>
       <r>    -9.9996    26.8125    16.0000 </r>
       <r>    -9.9250    -0.0000    16.0000 </r>
       <r>    -9.8504    -0.0000    16.0000 </r>
       <r>    -9.7758    14.8639    17.1087 </r>
       <r>    -9.7012    11.9482    18.0000 </r>
       <r>    -9.6266     0.0000    18.0000 </r>
       <r>    -9.5520     0.0000    18.0000 </r>
       <r>    -9.4775     0.0000    18.0000 </r>
       <r>    -9.4029     0.0000    18.0000 </r>
       <r>    -9.3283     0.0000    18.0000 </r>
       <r>    -9.2537    -0.0000    18.0000 </r>
       <r>    -9.1791    -0.0000    18.0000 </r>
       <r>    -9.1045    27.1973    20.0287 </r>
       <r>    -9.0299     0.0000    20.0000 </r>
       <r>    -8.9553     0.0000    20.0000 </r>
       <r>    -8.8807     0.0000    20.0000 </r>
       <r>    -8.8061     0.0000    20.0000 </r>
       <r>    -8.7315    -0.0000    20.0000 </r>
       <r>    -8.6569    -0.0000    20.0000 </r>
       <r>    -8.5823    26.8126    22.0000 </r>
       <r>    -8.5077     0.0000    22.0000 </r>
       <r>    -8.4332     0.0000    22.0000 </r>
       <r>    -8.3586     0.0000    22.0000 </r>
       <r>    -8.2840    -0.0000    22.0000 </r>
       <r>    -8.2094    -0.0000    22.0000 </r>
       <r>    -8.1348    21.3896    23.5955 </r>
       <r>    -8.0602     5.4225    24.0000 </r>
       <r>    -7.9856     0.0000    24.0000 </r>
       <r>    -7.9110     0.0000    24.0000 </r>
       <r>    -7.8364    -0.0000    24.0000 </r>
       <r>    -7.7618    -0.0082    23.9994 </r>
       <r>    -7.6872    26.8204    26.0000 </r>
       <r>    -7.6126     0.0000    26.0000 </r>
       <r>    -7.5380     0.0000    26.0000 </r>
       <r>    -7.4634     0.0000    26.0000 </r>
       <r>    -7.3889     0.0000    26.0000 </r>
       <r>    -7.3143     0.0000    26.0000 </r>
       <r>    -7.2397     0.0000    26.0000 </r>
       <r>    -7.1651     0.0000    26.0000 </r>
       <r>    -7.0905     0.0000    26.0000 </r>
       <r>    -7.0159     0.0000    26.0000 </r>
       <r>    -6.9413     0.0000    26.0000 </r>
       <r>    -6.8667     0.0000    26.0000 </r>
       <r>    -6.7921     0.0000    26.0000 </r>
       <r>    -6.7175     0.0000    26.0000 </r>
       <r>    -6.6429     0.0000    26.0000 </r>
       <r>    -6.5683     0.0000    26.0000 </r>
       <r>    -6.4937     0.0000    26.0000 </r>
       <r>    -6.4191     0.0000    26.0000 </r>
       <r>    -6.3445     0.0000    26.0000 </r>
       <r>    -6.2700     0.0000    26.0000 </r>
       <r>    -6.1954     0.0000    26.0000 </r>
       <r>    -6.1208     0.0000    26.0000 </r>
       <r>    -6.0462     0.0000    26.0000 </r>
       <r>    -5.9716     0.0000    26.0000 </r>
       <r>    -5.8970     0.0000    26.0000 </r>
       <r>    -5.8224     0.0000    26.0000 </r>
       <r>    -5.7478     0.0000    26.0000 </r>
       <r>    -5.6732     0.0000    26.0000 </r>
       <r>    -5.5986    -0.0000    26.0000 </r>
       <r>    -5.5240    -0.0000    26.0000 </r>
       <r>    -5.4494     3.0375    26.2266 </r>
       <r>    -5.3748    23.7747    28.0000 </r>
       <r>    -5.3002     0.0000    28.0000 </r>
       <r>    -5.2257     0.0000    28.0000 </r>
       <r>    -5.1511     0.0000    28.0000 </r>
       <r>    -5.0765     0.0000    28.0000 </r>
       <r>    -5.0019     0.0000    28.0000 </r>
       <r>    -4.9273     0.0000    28.0000 </r>
       <r>    -4.8527     0.0000    28.0000 </r>
       <r>    -4.7781     0.0000    28.0000 </r>
       <r>    -4.7035     0.0000    28.0000 </r>
       <r>    -4.6289     0.0000    28.0000 </r>
       <r>    -4.5543     0.0000    28.0000 </r>
       <r>    -4.4797     0.0000    28.0000 </r>
       <r>    -4.4051     0.0000    28.0000 </r>
       <r>    -4.3305     0.0000    28.0000 </r>
       <r>    -4.2559     0.0000    28.0000 </r>
       <r>    -4.1814     0.0000    28.0000 </r>
       <r>    -4.1068     0.0000    28.0000 </r>
       <r>    -4.0322     0.0000    28.0000 </r>
       <r>    -3.9576     0.0000    28.0000 </r>
       <r>    -3.8830     0.0000    28.0000 </r>
       <r>    -3.8084     0.0000    28.0000 </r>
       <r>    -3.7338     0.0000    28.0000 </r>
       <r>    -3.6592     0.0000    28.0000 </r>
       <r>    -3.5846     0.0000    28.0000 </r>
       <r>    -3.5100     0.0000    28.0000 </r>
       <r>    -3.4354     0.0000    28.0000 </r>
       <r>    -3.3608     0.0000    28.0000 </r>
       <r>    -3.2862     0.0000    28.0000 </r>
       <r>    -3.2116     0.0000    28.0000 </r>
       <r>    -3.1370     0.0000    28.0000 </r>
       <r>    -3.0625     0.0000    28.0000 </r>
       <r>    -2.9879     0.0000    28.0000 </r>
       <r>    -2.9133     0.0000    28.0000 </r>
       <r>    -2.8387     0.0000    28.0000 </r>
       <r>    -2.7641     0.0000    28.0000 </r>
       <r>    -2.6895     0.0000    28.0000 </r>
       <r>    -2.6149     0.0000    28.0000 </r>
       <r>    -2.5403     0.0000    28.0000 </r>
       <r>    -2.4657     0.0000    28.0000 </r>
       <r>    -2.3911     0.0000    28.0000 </r>
       <r>    -2.3165     0.0000    28.0000 </r>
       <r>    -2.2419     0.0000    28.0000 </r>
       <r>    -2.1673     0.0000    28.0000 </r>
       <r>    -2.0927     0.0000    28.0000 </r>
       <r>    -2.0182     0.0000    28.0000 </r>
       <r>    -1.9436     0.0000    28.0000 </r>
       <r>    -1.8690     0.0000    28.0000 </r>
       <r>    -1.7944     0.0000    28.0000 </r>
       <r>    -1.7198    -0.0000    28.0000 </r>
       <r>    -1.6452    -0.4000    27.9702 </r>
       <r>    -1.5706    27.2122    30.0000 </r>
       <r>    -1.4960     0.0000    30.0000 </r>
       <r>    -1.4214     0.0000    30.0000 </r>
       <r>    -1.3468     0.0000    30.0000 </r>
       <r>    -1.2722     0.0000    30.0000 </r>
       <r>    -1.1976     0.0000    30.0000 </r>
       <r>    -1.1230     0.0000    30.0000 </r>
       <r>    -1.0484     0.0000    30.0000 </r>
       <r>    -0.9739     0.0000    30.0000 </r>
       <r>    -0.8993     0.0000    30.0000 </r>
       <r>    -0.8247     0.0000    30.0000 </r>
       <r>    -0.7501     0.0000    30.0000 </r>
       <r>    -0.6755     0.0000    30.0000 </r>
       <r>    -0.6009     0.0000    30.0000 </r>
       <r>    -0.5263    -0.0000    30.0000 </r>
       <r>    -0.4517    -0.0000    30.0000 </r>
       <r>    -0.3771     5.3912    30.4021 </r>
       <r>    -0.3025    21.4210    32.0000 </r>
       <r>    -0.2279    -0.0000    32.0000 </r>
       <r>    -0.1533    -0.0000    32.0000 </r>
       <r>    -0.0787    25.9480    33.9355 </r>
       <r>    -0.0041    27.6992    36.0000 </r>
       <r>     0.0705    -0.0000    36.0000 </r>
       <r>     0.1450    -0.0000    36.0000 </r>
       <r>     0.2196    27.0080    38.0146 </r>
       <r>     0.2942    26.9107    39.9991 </r>
       <r>     0.3688    26.8236    42.0000 </r>
       <r>     0.4434     0.0000    42.0000 </r>
       <r>     0.5180     0.0000    42.0000 </r>
       <r>     0.5926     0.0000    42.0000 </r>
       <r>     0.6672     0.0000    42.0000 </r>
       <r>     0.7418     0.0000    42.0000 </r>
       <r>     0.8164     0.0000    42.0000 </r>
       <r>     0.8910     0.0000    42.0000 </r>
       <r>     0.9656     0.0000    42.0000 </r>
       <r>     1.0402     0.0000    42.0000 </r>
       <r>     1.1148     0.0000    42.0000 </r>
       <r>     1.1893     0.0000    42.0000 </r>
       <r>     1.2639     0.0000    42.0000 </r>
       <r>     1.3385     0.0000    42.0000 </r>
      </set>
     </set>
    </array>
   </total>
  </dos>
 </calculation>
 <structure name="finalpos" >
  <crystal>
   <varray name="basis" >
    <v>      16.32993162      -8.16496581      -8.16496581 </v>
    <v>       0.00000000      14.14213562     -14.14213562 </v>
    <v>      11.54700538      11.54700538      11.54700538 </v>
   </varray>
   <i name="volume">   8000.00000000 </i>
   <varray name="rec_basis" >
    <v>       0.04082483      -0.02041241      -0.02041241 </v>
    <v>       0.00000000       0.03535534      -0.03535534 </v>
    <v>       0.02886751       0.02886751       0.02886751 </v>
   </varray>
  </crystal>
  <varray name="positions" >
   <v>       0.41877331       0.52627098       0.63374060 </v>
   <v>       0.38362636       0.47154755       0.65096915 </v>
   <v>       0.46883919       0.55786760       0.67552044 </v>
   <v>       0.50424983       0.61240568       0.65784775 </v>
   <v>       0.55620345       0.64553623       0.69997197 </v>
   <v>       0.34647887       0.44963913       0.61760505 </v>
   <v>       0.39115289       0.44703916       0.69924337 </v>
   <v>       0.47784296       0.53511524       0.72464653 </v>
   <v>       0.49472329       0.63468511       0.60862484 </v>
   <v>       0.40983367       0.54939740       0.58483752 </v>
   <v>       0.56230045       0.62025693       0.74841545 </v>
   <v>       0.54346579       0.69833047       0.70961828 </v>
   <v>       0.60518540       0.64599993       0.67457811 </v>
  </varray>
  <varray name="selective"  type="logical" >
   <v type="logical" >  T  T  T </v>
   <v type="logical" >  T  T  T </v>
   <v type="logical" >  T  T  T </v>
   <v type="logical" >  T  T  T </v>
   <v type="logical" >  T  T  T </v>
   <v type="logical" >  T  T  T </v>
   <v type="logical" >  T  T  T </v>
   <v type="logical" >  T  T  T </v>
   <v type="logical" >  T  T  T </v>
   <v type="logical" >  T  T  T </v>
   <v type="logical" >  T  T  T </v>
   <v type="logical" >  T  T  T </v>
   <v type="logical" >  T  T  T </v>
  </varray>
  <nose>
   <v>      -3.00000000       0.00000000       0.00010000       0.00010000 </v>
  </nose>
 </structure>
</modeling>
