unknown system                          
           1
    16.329932   -8.164966   -8.164966
     0.000000   14.142136  -14.142136
    11.547005   11.547005   11.547005
   O    H    C 
   1   8   3
Direct configuration=     1
   0.41937505  0.53800663  0.63470434
   0.35607785  0.46306320  0.60725839
   0.35647354  0.48009993  0.69546304
   0.42515216  0.43602353  0.65795398
   0.49773824  0.52110854  0.70105230
   0.42982485  0.56927599  0.73337966
   0.52732333  0.64291965  0.70830298
   0.45975244  0.66317583  0.65374176
   0.52849615  0.61506539  0.62358887
   0.38791709  0.47628884  0.64999191
   0.46084864  0.56054982  0.68816679
   0.49612352  0.62416788  0.66706786
