   2   2   0   0
  0.4000000E+04  0.2000000E-08  0.2000000E-08  0.2000000E-08  0.2500000E-15
  1.000000000000000E-004
  CAR 
 unknown system                          
      1.34969994    -11.40091125  301     -9.91325693      1.00000000
    -11.401  0.0000E+00  0.0000E+00
    -11.358  0.0000E+00  0.0000E+00
    -11.316  0.0000E+00  0.0000E+00
    -11.273  0.0000E+00  0.0000E+00
    -11.231  0.0000E+00  0.0000E+00
    -11.188  0.0000E+00  0.0000E+00
    -11.146  0.0000E+00  0.0000E+00
    -11.103  0.0000E+00  0.0000E+00
    -11.061  0.0000E+00  0.0000E+00
    -11.018  0.0000E+00  0.0000E+00
    -10.976  0.4179E-17  0.1776E-18
    -10.933  0.4723E-15  0.2025E-16
    -10.891  0.3933E-13  0.1692E-14
    -10.848  0.2294E-11  0.9920E-13
    -10.806  0.9378E-10  0.4085E-11
    -10.763  0.2688E-08  0.1183E-09
    -10.721  0.5405E-07  0.2416E-08
    -10.678  0.7630E-06  0.3484E-07
    -10.636  0.7565E-05  0.3564E-06
    -10.593  0.5272E-04  0.2597E-05
    -10.551  0.2583E-03  0.1358E-04
    -10.508  0.8908E-03  0.5144E-04
    -10.466  0.2162E-02  0.1433E-03
    -10.423  0.3694E-02  0.3003E-03
    -10.381  0.4446E-02  0.4893E-03
    -10.338  0.3768E-02  0.6495E-03
    -10.296  0.2249E-02  0.7451E-03
    -10.253  0.9454E-03  0.7852E-03
    -10.211  0.2797E-03  0.7971E-03
    -10.168  0.5822E-04  0.7996E-03
    -10.126  0.8523E-05  0.8000E-03
    -10.083  0.8769E-06  0.8000E-03
    -10.041  0.6338E-07  0.8000E-03
     -9.998  0.3216E-08  0.8000E-03
     -9.956  0.1145E-09  0.8000E-03
     -9.913  0.2857E-11  0.8000E-03
     -9.871  0.4997E-13  0.8000E-03
     -9.828  0.6144E-15  0.8000E-03
     -9.786  0.4179E-17  0.8000E-03
     -9.743  0.0000E+00  0.8000E-03
     -9.701  0.0000E+00  0.8000E-03
     -9.658  0.0000E+00  0.8000E-03
     -9.616  0.0000E+00  0.8000E-03
     -9.573  0.0000E+00  0.8000E-03
     -9.531  0.0000E+00  0.8000E-03
     -9.488  0.0000E+00  0.8000E-03
     -9.446  0.0000E+00  0.8000E-03
     -9.403  0.0000E+00  0.8000E-03
     -9.361  0.0000E+00  0.8000E-03
     -9.318  0.0000E+00  0.8000E-03
     -9.276  0.0000E+00  0.8000E-03
     -9.233  0.0000E+00  0.8000E-03
     -9.191  0.0000E+00  0.8000E-03
     -9.148  0.0000E+00  0.8000E-03
     -9.106  0.0000E+00  0.8000E-03
     -9.063  0.0000E+00  0.8000E-03
     -9.021  0.0000E+00  0.8000E-03
     -8.978  0.0000E+00  0.8000E-03
     -8.936  0.0000E+00  0.8000E-03
     -8.893  0.0000E+00  0.8000E-03
     -8.851  0.0000E+00  0.8000E-03
     -8.808  0.0000E+00  0.8000E-03
     -8.766  0.0000E+00  0.8000E-03
     -8.723  0.0000E+00  0.8000E-03
     -8.681  0.0000E+00  0.8000E-03
     -8.638  0.0000E+00  0.8000E-03
     -8.596  0.0000E+00  0.8000E-03
     -8.553  0.0000E+00  0.8000E-03
     -8.511  0.0000E+00  0.8000E-03
     -8.468  0.0000E+00  0.8000E-03
     -8.426  0.0000E+00  0.8000E-03
     -8.383  0.0000E+00  0.8000E-03
     -8.341  0.0000E+00  0.8000E-03
     -8.298  0.0000E+00  0.8000E-03
     -8.256  0.0000E+00  0.8000E-03
     -8.213  0.0000E+00  0.8000E-03
     -8.171  0.0000E+00  0.8000E-03
     -8.128  0.0000E+00  0.8000E-03
     -8.086  0.0000E+00  0.8000E-03
     -8.043  0.0000E+00  0.8000E-03
     -8.001  0.0000E+00  0.8000E-03
     -7.958  0.0000E+00  0.8000E-03
     -7.916  0.0000E+00  0.8000E-03
     -7.873  0.0000E+00  0.8000E-03
     -7.831  0.0000E+00  0.8000E-03
     -7.788  0.0000E+00  0.8000E-03
     -7.746  0.0000E+00  0.8000E-03
     -7.703  0.0000E+00  0.8000E-03
     -7.661  0.0000E+00  0.8000E-03
     -7.618  0.0000E+00  0.8000E-03
     -7.576  0.0000E+00  0.8000E-03
     -7.533  0.0000E+00  0.8000E-03
     -7.491  0.0000E+00  0.8000E-03
     -7.448  0.0000E+00  0.8000E-03
     -7.406  0.0000E+00  0.8000E-03
     -7.363  0.0000E+00  0.8000E-03
     -7.321  0.0000E+00  0.8000E-03
     -7.278  0.0000E+00  0.8000E-03
     -7.236  0.0000E+00  0.8000E-03
     -7.193  0.0000E+00  0.8000E-03
     -7.151  0.0000E+00  0.8000E-03
     -7.108  0.0000E+00  0.8000E-03
     -7.066  0.0000E+00  0.8000E-03
     -7.023  0.0000E+00  0.8000E-03
     -6.981  0.0000E+00  0.8000E-03
     -6.938  0.0000E+00  0.8000E-03
     -6.896  0.0000E+00  0.8000E-03
     -6.853  0.0000E+00  0.8000E-03
     -6.811  0.0000E+00  0.8000E-03
     -6.768  0.0000E+00  0.8000E-03
     -6.726  0.0000E+00  0.8000E-03
     -6.683  0.0000E+00  0.8000E-03
     -6.641  0.0000E+00  0.8000E-03
     -6.598  0.0000E+00  0.8000E-03
     -6.556  0.0000E+00  0.8000E-03
     -6.513  0.0000E+00  0.8000E-03
     -6.471  0.0000E+00  0.8000E-03
     -6.428  0.0000E+00  0.8000E-03
     -6.386  0.0000E+00  0.8000E-03
     -6.343  0.0000E+00  0.8000E-03
     -6.301  0.0000E+00  0.8000E-03
     -6.258  0.0000E+00  0.8000E-03
     -6.216  0.0000E+00  0.8000E-03
     -6.173  0.0000E+00  0.8000E-03
     -6.131  0.0000E+00  0.8000E-03
     -6.088  0.0000E+00  0.8000E-03
     -6.046  0.0000E+00  0.8000E-03
     -6.003  0.0000E+00  0.8000E-03
     -5.961  0.0000E+00  0.8000E-03
     -5.918  0.0000E+00  0.8000E-03
     -5.876  0.0000E+00  0.8000E-03
     -5.833  0.0000E+00  0.8000E-03
     -5.791  0.0000E+00  0.8000E-03
     -5.748  0.0000E+00  0.8000E-03
     -5.706  0.0000E+00  0.8000E-03
     -5.663  0.0000E+00  0.8000E-03
     -5.621  0.0000E+00  0.8000E-03
     -5.578  0.0000E+00  0.8000E-03
     -5.536  0.0000E+00  0.8000E-03
     -5.493  0.0000E+00  0.8000E-03
     -5.451  0.0000E+00  0.8000E-03
     -5.408  0.0000E+00  0.8000E-03
     -5.366  0.0000E+00  0.8000E-03
     -5.323  0.0000E+00  0.8000E-03
     -5.281  0.0000E+00  0.8000E-03
     -5.238  0.0000E+00  0.8000E-03
     -5.196  0.0000E+00  0.8000E-03
     -5.153  0.0000E+00  0.8000E-03
     -5.111  0.0000E+00  0.8000E-03
     -5.068  0.0000E+00  0.8000E-03
     -5.026  0.0000E+00  0.8000E-03
     -4.983  0.0000E+00  0.8000E-03
     -4.941  0.0000E+00  0.8000E-03
     -4.898  0.0000E+00  0.8000E-03
     -4.856  0.0000E+00  0.8000E-03
     -4.813  0.0000E+00  0.8000E-03
     -4.771  0.0000E+00  0.8000E-03
     -4.728  0.0000E+00  0.8000E-03
     -4.686  0.0000E+00  0.8000E-03
     -4.643  0.0000E+00  0.8000E-03
     -4.601  0.0000E+00  0.8000E-03
     -4.558  0.0000E+00  0.8000E-03
     -4.516  0.0000E+00  0.8000E-03
     -4.473  0.0000E+00  0.8000E-03
     -4.431  0.0000E+00  0.8000E-03
     -4.388  0.0000E+00  0.8000E-03
     -4.346  0.0000E+00  0.8000E-03
     -4.303  0.0000E+00  0.8000E-03
     -4.261  0.0000E+00  0.8000E-03
     -4.218  0.0000E+00  0.8000E-03
     -4.176  0.0000E+00  0.8000E-03
     -4.133  0.0000E+00  0.8000E-03
     -4.091  0.0000E+00  0.8000E-03
     -4.048  0.0000E+00  0.8000E-03
     -4.006  0.0000E+00  0.8000E-03
     -3.963  0.0000E+00  0.8000E-03
     -3.921  0.0000E+00  0.8000E-03
     -3.878  0.0000E+00  0.8000E-03
     -3.836  0.0000E+00  0.8000E-03
     -3.793  0.0000E+00  0.8000E-03
     -3.751  0.0000E+00  0.8000E-03
     -3.708  0.0000E+00  0.8000E-03
     -3.666  0.0000E+00  0.8000E-03
     -3.623  0.0000E+00  0.8000E-03
     -3.581  0.0000E+00  0.8000E-03
     -3.538  0.0000E+00  0.8000E-03
     -3.496  0.0000E+00  0.8000E-03
     -3.453  0.0000E+00  0.8000E-03
     -3.411  0.0000E+00  0.8000E-03
     -3.368  0.0000E+00  0.8000E-03
     -3.326  0.0000E+00  0.8000E-03
     -3.283  0.0000E+00  0.8000E-03
     -3.241  0.0000E+00  0.8000E-03
     -3.198  0.0000E+00  0.8000E-03
     -3.156  0.0000E+00  0.8000E-03
     -3.113  0.0000E+00  0.8000E-03
     -3.071  0.0000E+00  0.8000E-03
     -3.028  0.0000E+00  0.8000E-03
     -2.986  0.0000E+00  0.8000E-03
     -2.943  0.0000E+00  0.8000E-03
     -2.901  0.0000E+00  0.8000E-03
     -2.858  0.0000E+00  0.8000E-03
     -2.815  0.0000E+00  0.8000E-03
     -2.773  0.0000E+00  0.8000E-03
     -2.730  0.0000E+00  0.8000E-03
     -2.688  0.0000E+00  0.8000E-03
     -2.645  0.0000E+00  0.8000E-03
     -2.603  0.0000E+00  0.8000E-03
     -2.560  0.0000E+00  0.8000E-03
     -2.518  0.0000E+00  0.8000E-03
     -2.475  0.0000E+00  0.8000E-03
     -2.433  0.0000E+00  0.8000E-03
     -2.390  0.0000E+00  0.8000E-03
     -2.348  0.0000E+00  0.8000E-03
     -2.305  0.0000E+00  0.8000E-03
     -2.263  0.0000E+00  0.8000E-03
     -2.220  0.0000E+00  0.8000E-03
     -2.178  0.0000E+00  0.8000E-03
     -2.135  0.0000E+00  0.8000E-03
     -2.093  0.0000E+00  0.8000E-03
     -2.050  0.0000E+00  0.8000E-03
     -2.008  0.0000E+00  0.8000E-03
     -1.965  0.0000E+00  0.8000E-03
     -1.923  0.0000E+00  0.8000E-03
     -1.880  0.0000E+00  0.8000E-03
     -1.838  0.0000E+00  0.8000E-03
     -1.795  0.0000E+00  0.8000E-03
     -1.753  0.0000E+00  0.8000E-03
     -1.710  0.0000E+00  0.8000E-03
     -1.668  0.0000E+00  0.8000E-03
     -1.625  0.0000E+00  0.8000E-03
     -1.583  0.0000E+00  0.8000E-03
     -1.540  0.0000E+00  0.8000E-03
     -1.498  0.0000E+00  0.8000E-03
     -1.455  0.0000E+00  0.8000E-03
     -1.413  0.0000E+00  0.8000E-03
     -1.370  0.0000E+00  0.8000E-03
     -1.328  0.0000E+00  0.8000E-03
     -1.285  0.0000E+00  0.8000E-03
     -1.243  0.0000E+00  0.8000E-03
     -1.200  0.0000E+00  0.8000E-03
     -1.158  0.0000E+00  0.8000E-03
     -1.115  0.0000E+00  0.8000E-03
     -1.073  0.0000E+00  0.8000E-03
     -1.030  0.0000E+00  0.8000E-03
     -0.988  0.0000E+00  0.8000E-03
     -0.945  0.0000E+00  0.8000E-03
     -0.903  0.0000E+00  0.8000E-03
     -0.860  0.0000E+00  0.8000E-03
     -0.818  0.0000E+00  0.8000E-03
     -0.775  0.0000E+00  0.8000E-03
     -0.733  0.0000E+00  0.8000E-03
     -0.690  0.0000E+00  0.8000E-03
     -0.648  0.0000E+00  0.8000E-03
     -0.605  0.1045E-17  0.8000E-03
     -0.563  0.1097E-15  0.8000E-03
     -0.520  0.1025E-13  0.8000E-03
     -0.478  0.6683E-12  0.8000E-03
     -0.435  0.3053E-10  0.8000E-03
     -0.393  0.9777E-09  0.8000E-03
     -0.350  0.2196E-07  0.8000E-03
     -0.308  0.3463E-06  0.8000E-03
     -0.265  0.3834E-05  0.8002E-03
     -0.223  0.2984E-04  0.8014E-03
     -0.180  0.1632E-03  0.8084E-03
     -0.138  0.6285E-03  0.8351E-03
     -0.095  0.1705E-02  0.9076E-03
     -0.053  0.3273E-02  0.1047E-02
     -0.010  0.4515E-02  0.1239E-02
      0.032  0.4735E-02  0.1440E-02
      0.075  0.4432E-02  0.1628E-02
      0.117  0.4598E-02  0.1824E-02
      0.160  0.5224E-02  0.2046E-02
      0.202  0.5740E-02  0.2290E-02
      0.245  0.6396E-02  0.2561E-02
      0.287  0.7630E-02  0.2886E-02
      0.330  0.8589E-02  0.3251E-02
      0.372  0.7877E-02  0.3586E-02
      0.415  0.5492E-02  0.3819E-02
      0.457  0.2834E-02  0.3939E-02
      0.500  0.1069E-02  0.3985E-02
      0.542  0.2915E-03  0.3997E-02
      0.585  0.5706E-04  0.4000E-02
      0.627  0.7965E-05  0.4000E-02
      0.670  0.7888E-06  0.4000E-02
      0.712  0.5522E-07  0.4000E-02
      0.755  0.2725E-08  0.4000E-02
      0.797  0.9461E-10  0.4000E-02
      0.840  0.2307E-11  0.4000E-02
      0.882  0.3947E-13  0.4000E-02
      0.925  0.4723E-15  0.4000E-02
      0.967  0.4179E-17  0.4000E-02
      1.010  0.0000E+00  0.4000E-02
      1.052  0.0000E+00  0.4000E-02
      1.095  0.0000E+00  0.4000E-02
      1.137  0.0000E+00  0.4000E-02
      1.180  0.0000E+00  0.4000E-02
      1.222  0.0000E+00  0.4000E-02
      1.265  0.0000E+00  0.4000E-02
      1.307  0.0000E+00  0.4000E-02
      1.350  0.0000E+00  0.4000E-02
