    2    2 2500    1
  0.4000000E+04  0.2000000E-08  0.2000000E-08  0.2000000E-08  0.2500000E-15
  1.000000000000000E-004
  CAR 
 unknown system                          
    2    1    5
 
  0.0000000E+00  0.0000000E+00  0.0000000E+00  0.1000000E+01
   1      -10.400911
   2       -0.017122
   3        0.153794
   4        0.296287
   5        0.349700
