 vasp.5.3.3 18Dez12 (build Sep 09 2013 12:05:18) gamma-only                     
  
 executed on             LinuxIFC date 2017.04.23  22:49:37
 running on    8 total cores
 distrk:  each k-point on    8 cores,    1 groups
 distr:  one band on NCORES_PER_BAND=   8 cores,    1 groups


--------------------------------------------------------------------------------------------------------


 INCAR:
 POTCAR:   PAW_GGA H 07Jul1998                    

 ----------------------------------------------------------------------------- 
|                                                                             |
|           W    W    AA    RRRRR   N    N  II  N    N   GGGG   !!!           |
|           W    W   A  A   R    R  NN   N  II  NN   N  G    G  !!!           |
|           W    W  A    A  R    R  N N  N  II  N N  N  G       !!!           |
|           W WW W  AAAAAA  RRRRR   N  N N  II  N  N N  G  GGG   !            |
|           WW  WW  A    A  R   R   N   NN  II  N   NN  G    G                |
|           W    W  A    A  R    R  N    N  II  N    N   GGGG   !!!           |
|                                                                             |
|      For optimal performance we recommend that you set                      |
|        NPAR = 4 - approx SQRT( number of cores)                             |
|      (number of cores/NPAR must be integer)                                 |
|      This setting will greatly improve the performance of VASP for DFT.     |
|      The default NPAR=number of cores might be grossly inefficient          |
|      on modern multi-core architectures or massively parallel machines.     |
|      Do your own testing.                                                   |
|      Unfortunately you need to use the default for hybrid, GW and RPA       |
|      calculations.                                                          |
|                                                                             |
 ----------------------------------------------------------------------------- 

 POTCAR:   PAW_GGA H 07Jul1998                    
   VRHFIN =H: ultrasoft test                                                    
   LEXCH  = 91                                                                  
   EATOM  =    12.5313 eV,     .9210 Ry                                         
                                                                                
   TITEL  = PAW_GGA H 07Jul1998                                                 
   LULTRA =        F    use ultrasoft PP ?                                      
   IUNSCR =        0    unscreen: 0-lin 1-nonlin 2-no                           
   RPACOR =     .000    partial core radius                                     
   POMASS =    1.000; ZVAL   =    1.000    mass and valenz                      
   RCORE  =    1.100    outmost cutoff radius                                   
   RWIGS  =     .700; RWIGS  =     .370    wigner-seitz radius (au A)           
   ENMAX  =  250.000; ENMIN  =  200.000 eV                                      
   RCLOC  =     .701    cutoff for local pot                                    
   LCOR   =        T    correct aug charges                                     
   LPAW   =        T    paw PP                                                  
   EAUG   =  400.000                                                            
   RMAX   =    2.174    core radius for proj-oper                               
   RAUG   =    1.200    factor for augmentation sphere                          
   RDEP   =    1.112    core radius for depl-charge                             
   QCUT   =   -5.749; QGAM   =   11.498    optimization parameters              
                                                                                
   Description                                                                  
     l     E      TYP  RCUT    TYP  RCUT                                        
     0   .000     23  1.100                                                     
     0   .500     23  1.100                                                     
     1  -.300     23  1.100                                                     
  local pseudopotential read in
  atomic valenz-charges read in
  non local Contribution for L=           0  read in
    real space projection operators read in
  non local Contribution for L=           0  read in
    real space projection operators read in
  non local Contribution for L=           1  read in
    real space projection operators read in
    PAW grid and wavefunctions read in
 
   number of l-projection  operators is LMAX  =           3
   number of lm-projection operators is LMMAX =           5
 

 ----------------------------------------------------------------------------- 
|                                                                             |
|  ADVICE TO THIS USER RUNNING 'VASP/VAMP'   (HEAR YOUR MASTER'S VOICE ...):  |
|                                                                             |
|      You have a (more or less) 'small supercell' and for smaller cells      |
|      it is recommended  to use the reciprocal-space projection scheme!      |
|      The real space optimization is not  efficient for small cells and it   |
|      is also less accurate ...                                              |
|      Therefore set LREAL=.FALSE. in the  INCAR file                         |
|                                                                             |
 ----------------------------------------------------------------------------- 

 Optimization of the real space projectors (new method)

 maximal supplied QI-value         = 34.20
 optimisation between [QCUT,QGAM] = [  9.92, 20.18] = [ 27.55,114.04] Ry 
 Optimized for a Real-space Cutoff    1.26 Angstroem

   l    n(q)    QCUT    max X(q) W(low)/X(q) W(high)/X(q)  e(spline) 
   0      8     9.919     4.435    0.80E-04    0.66E-04    0.51E-07
   0      8     9.919    16.011    0.48E-03    0.23E-03    0.28E-06
   1      7     9.919     4.617    0.17E-03    0.74E-03    0.30E-06
 PAW_GGA H 07Jul1998                    :
 energy of atom  1       EATOM=  -12.5313
 kinetic energy error for atom=    0.0098 (will be added to EATOM!!)
 
 
 POSCAR:  H                                      
  positions in cartesian coordinates
  No initial velocities read in
 exchange correlation table for  LEXCH =        7
   RHO(1)=    0.500       N(1)  =     2000
   RHO(2)=  100.500       N(2)  =     4000

 VTST: version 3.0c, (03/27/13)

 CHAIN: initializing optimizer
 
 OPT: Using VASP Conjugate-Gradient optimizer
 CHAIN: Read ICHAIN            0
 
 POSCAR:  H                                      
  positions in cartesian coordinates
  No initial velocities read in
 


--------------------------------------------------------------------------------------------------------


 ion  position               nearest neighbor table
   1  0.000  0.000  0.000-   2 0.74
   2  0.000  0.000  0.037-   1 0.74
 

IMPORTANT INFORMATION: All symmetrisations will be switched off!
NOSYMM: (Re-)initialisation of all symmetry stuff for point group C_1.

 
 
 KPOINTS: Gamma-point only                        
  k-points in reciprocal lattice
Space group operators:
 irot       det(A)        alpha          n_x          n_y          n_z        tau_x        tau_y        tau_z
    1     1.000000     0.000000     1.000000     0.000000     0.000000     0.000000     0.000000     0.000000


--------------------------------------------------------------------------------------------------------




 Dimension of arrays:
   k-points           NKPTS =      1   k-points in BZ     NKDIM =      1   number of bands    NBANDS=      5
   number of dos      NEDOS =    301   number of ions     NIONS =      2
   non local maximal  LDIM  =      3   non local SUM 2l+1 LMDIM =      5
   total plane-waves  NPLWV = 941192
   max r-space proj   IRMAX =   1043   max aug-charges    IRDMAX=    771
   dimension x,y,z NGX =    98 NGY =   98 NGZ =   98
   dimension x,y,z NGXF=   196 NGYF=  196 NGZF=  196
   support grid    NGXF=   196 NGYF=  196 NGZF=  196
   ions per type =               2
 NGX,Y,Z   is equivalent  to a cutoff of   8.15,  8.15,  8.15 a.u.
 NGXF,Y,Z  is equivalent  to a cutoff of  16.29, 16.29, 16.29 a.u.


 I would recommend the setting:
   dimension x,y,z NGX =    98 NGY =   98 NGZ =   98
 SYSTEM =  unknown system                          
 POSCAR =   H                                      

 Startparameter for this run:
   NWRITE =      2    write-flag & timer
   PREC   = normal    normal or accurate (medium, high low for compatibility)
   ISTART =      0    job   : 0-new  1-cont  2-samecut
   ICHARG =      2    charge: 1-file 2-atom 10-const
   ISPIN  =      1    spin polarized calculation?
   LNONCOLLINEAR =      F non collinear calculations
   LSORBIT =      F    spin-orbit coupling
   INIWAV =      1    electr: 0-lowe 1-rand  2-diag
   LASPH  =      F    aspherical Exc in radial PAW
   METAGGA=      F    non-selfconsistent MetaGGA calc.

 Electronic Relaxation 1
   ENCUT  =  400.0 eV  29.40 Ry    5.42 a.u.  32.61 32.61 32.61*2*pi/ulx,y,z
   ENINI  =  400.0     initial cutoff
   ENAUG  =  400.0 eV  augmentation charge cutoff
   NELM   =    500;   NELMIN=  2; NELMDL=  0     # of ELM steps 
   EDIFF  = 0.1E-05   stopping-criterion for ELM
   LREAL  =      T    real-space projection
   NLSPLINE    = F    spline interpolate recip. space projectors
   LCOMPAT=      F    compatible to vasp.4.4
   GGA_COMPAT  = T    GGA compatible to vasp.4.4-vasp.4.6
   LMAXPAW     = -100 max onsite density
   LMAXMIX     =    2 max onsite mixed and CHGCAR
   VOSKOWN=      1    Vosko Wilk Nusair interpolation
   ROPT   =   -0.00050
 Ionic relaxation
   EDIFFG = -.5E-01   stopping-criterion for IOM
   NSW    =   2500    number of steps for IOM
   NBLOCK =      1;   KBLOCK =   2500    inner block; outer block 
   IBRION =      2    ionic relax: 0-MD 1-quasi-New 2-CG
   NFREE  =      1    steps in history (QN), initial steepest desc. (CG)
   ISIF   =      0    stress and relaxation
   IWAVPR =     11    prediction:  0-non 1-charg 2-wave 3-comb
   ISYM   =      0    0-nonsym 1-usesym 2-fastsym
   LCORR  =      T    Harris-Foulkes like correction to forces

   POTIM  = 0.2500    time-step for ionic-motion
   TEIN   =    0.0    initial temperature
   TEBEG  =    0.0;   TEEND  =   0.0 temperature during run
   SMASS  =  -3.00    Nose mass-parameter (am)
   estimated Nose-frequenzy (Omega)   =  0.10E-29 period in steps =****** mass=  -0.914E-26a.u.
   SCALEE = 1.0000    scale energy and forces
   NPACO  =    256;   APACO  = 16.0  distance and # of slots for P.C.
   PSTRESS=    0.0 pullay stress

  Mass of Ions in am
   POMASS =   1.00
  Ionic Valenz
   ZVAL   =   1.00
  Atomic Wigner-Seitz radii
   RWIGS  =  -1.00
  virtual crystal weights 
   VCA    =   1.00
   NELECT =       2.0000    total number of electrons
   NUPDOWN=      -1.0000    fix difference up-down

 DOS related values:
   EMIN   =  10.00;   EMAX   =-10.00  energy-range for DOS
   EFERMI =   0.00
   ISMEAR =     0;   SIGMA  =   0.10  broadening in eV -4-tet -1-fermi 0-gaus

 Electronic relaxation 2 (details)
   IALGO  =     68    algorithm
   LDIAG  =      T    sub-space diagonalisation (order eigenvalues)
   LSUBROT=      T    optimize rotation matrix (better conditioning)
   TURBO    =      0    0=normal 1=particle mesh
   IRESTART =      0    0=no restart 2=restart with 2 vectors
   NREBOOT  =      0    no. of reboots
   NMIN     =      0    reboot dimension
   EREF     =   0.00    reference energy to select bands
   IMIX   =      4    mixing-type and parameters
     AMIX     =   0.40;   BMIX     =  1.00
     AMIX_MAG =   1.60;   BMIX_MAG =  1.00
     AMIN     =   0.10
     WC   =   100.;   INIMIX=   1;  MIXPRE=   1;  MAXMIX= -45

 Intra band minimization:
   WEIMIN = 0.0010     energy-eigenvalue tresh-hold
   EBREAK =  0.50E-07  absolut break condition
   DEPER  =   0.30     relativ break condition  

   TIME   =   0.40     timestep for ELM

  volume/ion in A,a.u.               =    4000.00     26993.33
  Fermi-wavevector in a.u.,A,eV,Ry     =   0.103131  0.194889  0.144711  0.010636
  Thomas-Fermi vector in A             =   0.684775
 
 Write flags
   LWAVE  =      F    write WAVECAR
   LCHARG =      F    write CHGCAR
   LVTOT  =      F    write LOCPOT, total local potential
   LVHAR  =      F    write LOCPOT, Hartree potential only
   LELF   =      F    write electronic localiz. function (ELF)
   LORBIT =      0    0 simple, 1 ext, 2 COOP (PROOUT)


 Dipole corrections
   LMONO  =      F    monopole corrections only (constant potential shift)
   LDIPOL =      F    correct potential (dipole corrections)
   IDIPOL =      0    1-x, 2-y, 3-z, 4-all directions 
   EPSILON=  1.0000000 bulk dielectric constant

 Exchange correlation treatment:
   GGA     =    91    GGA type
   LEXCH   =     7    internal setting for exchange type
   VOSKOWN=      1    Vosko Wilk Nusair interpolation
   LHFCALC =     F    Hartree Fock is set to
   LHFONE  =     F    Hartree Fock one center treatment
   AEXX    =    0.0000 exact exchange contribution

 Linear response parameters
   LEPSILON=     F    determine dielectric tensor
   LRPA    =     F    only Hartree local field effects (RPA)
   LNABLA  =     F    use nabla operator in PAW spheres
   LVEL    =     F    velocity operator in full k-point grid
   LINTERFAST=   F  fast interpolation
   KINTER  =     0    interpolate to denser k-point grid
   CSHIFT  =0.1000    complex shift for real part using Kramers Kronig
   OMEGAMAX=  -1.0    maximum frequency
   DEG_THRESHOLD= 0.2000000E-02 threshold for treating states as degnerate
   RTIME   =    0.100 relaxation time in fs

 Orbital magnetization related:
   ORBITALMAG=     F  switch on orbital magnetization
   LCHIMAG   =     F  perturbation theory with respect to B field
   DQ        =  0.001000  dq finite difference perturbation B field



--------------------------------------------------------------------------------------------------------


 conjugate gradient relaxation of ions
 charge density and potential will be updated during run
 non-spin polarized calculation
 RMM-DIIS sequential band-by-band and
  variant of blocked Davidson during initial phase
 perform sub-space diagonalisation
    before iterative eigenvector-optimisation
 modified Broyden-mixing scheme, WC =      100.0
 initial mixing is a Kerker type mixing with AMIX =  0.4000 and BMIX =      1.0000
 Hartree-type preconditioning will be used
 using additional bands            4
 real space projection scheme for non local part
 calculate Harris-corrections to forces 
   (improved forces if not selfconsistent)
 use gradient corrections 
 use of overlap-Matrix (Vanderbilt PP)
 Gauss-broadening in eV      SIGMA  =   0.10


--------------------------------------------------------------------------------------------------------


  energy-cutoff  :      400.00
  volume of cell :     8000.00
      direct lattice vectors                 reciprocal lattice vectors
    20.000000000  0.000000000  0.000000000     0.050000000  0.000000000  0.000000000
     0.000000000 20.000000000  0.000000000     0.000000000  0.050000000  0.000000000
     0.000000000  0.000000000 20.000000000     0.000000000  0.000000000  0.050000000

  length of vectors
    20.000000000 20.000000000 20.000000000     0.050000000  0.050000000  0.050000000


 
 k-points in units of 2pi/SCALE and weight: Gamma-point only                        
   0.00000000  0.00000000  0.00000000       1.000
 
 k-points in reciprocal lattice and weights: Gamma-point only                        
   0.00000000  0.00000000  0.00000000       1.000
 
 position of ions in fractional coordinates (direct lattice) 
   0.00000000  0.00000000  0.00000000
   0.00000000  0.00000000  0.03700000
 
 position of ions in cartesian coordinates  (Angst):
   0.00000000  0.00000000  0.00000000
   0.00000000  0.00000000  0.74000000
 


--------------------------------------------------------------------------------------------------------


 use parallel FFT for wavefunctions z direction half grid
 k-point  1 :   0.0000 0.0000 0.0000  plane waves:   72583

 maximum and minimum number of plane-waves per node :      9081     9067

 maximum number of plane-waves:     72583
 maximum index in each direction: 
   IXMAX=   32   IYMAX=   32   IZMAX=   32
   IXMIN=  -32   IYMIN=  -32   IZMIN=    0

 WARNING: aliasing errors must be expected set NGX to 130 to avoid them
 WARNING: aliasing errors must be expected set NGY to 130 to avoid them
 WARNING: aliasing errors must be expected set NGZ to 130 to avoid them
 aliasing errors are usually negligible using standard VASP settings
 and one can safely disregard these warnings

 real space projection operators:
  total allocation   :         74.88 KBytes
  max/ min on nodes  :         17.89          5.70


 parallel 3D FFT for wavefunctions:
    minimum data exchange during FFTs selected (reduces bandwidth)
 parallel 3D FFT for charge:
    minimum data exchange during FFTs selected (reduces bandwidth)


 total amount of memory used by VASP on root node   117265. kBytes
========================================================================

   base      :      30000. kBytes
   nonlr-proj:         21. kBytes
   fftplans  :      35092. kBytes
   grid      :      51427. kBytes
   one-center:          0. kBytes
   wavefun   :        725. kBytes
 
 Broyden mixing: mesh for mixing (old mesh)
   NGX = 65   NGY = 65   NGZ = 65
  (NGX  =196   NGY  =196   NGZ  =196)
  gives a total of 274625 points

 initial charge density was supplied:
 charge density of overlapping atoms calculated
 number of electron       2.0000000 magnetization 
 keeping initial charge density in first step


--------------------------------------------------------------------------------------------------------


 Maximum index for non-local projection operator          224
 Maximum index for augmentation-charges          112 (set IRDMAX)


--------------------------------------------------------------------------------------------------------


 First call to EWALD:  gamma=   0.089
 Maximum number of real-space cells 3x 3x 3
 Maximum number of reciprocal cells 3x 3x 3

 FEWALD executed in parallel
    FEWALD:  cpu time    0.00: real time    0.00


----------------------------------------- Iteration    1(   1)  ---------------------------------------


    POTLOK:  cpu time    1.36: real time    1.36
    SETDIJ:  cpu time    0.00: real time    0.00
     EDDAV:  cpu time    0.24: real time    0.24
       DOS:  cpu time    0.00: real time    0.00
    --------------------------------------------
      LOOP:  cpu time    1.60: real time    1.60

 eigenvalue-minimisations  :    10
 total energy-change (2. order) :-0.3364584E+01  (-0.2182198E+02)
 number of electron       2.0000000 magnetization 
 augmentation part        2.0000000 magnetization 

 Free energy of the ion-electron system (eV)
  ---------------------------------------------------
  alpha Z        PSCENC =         0.00122237
  Ewald energy   TEWEN  =        15.37559231
  -1/2 Hartree   DENC   =       -24.67578669
  -exchange  EXHF       =         0.00000000
  -V(xc)+E(xc)   XCENC  =         4.39332526
  PAW double counting   =         1.58351580       -1.60057786
  entropy T*S    EENTRO =         0.00000000
  eigenvalues    EBANDS =       -23.48494209
  atomic energy  EATOM  =        25.04306716
  ---------------------------------------------------
  free energy    TOTEN  =        -3.36458373 eV

  energy without entropy =       -3.36458373  energy(sigma->0) =       -3.36458373


--------------------------------------------------------------------------------------------------------




----------------------------------------- Iteration    1(   2)  ---------------------------------------


     EDDAV:  cpu time    0.23: real time    0.23
       DOS:  cpu time    0.00: real time    0.00
    --------------------------------------------
      LOOP:  cpu time    0.23: real time    0.23

 eigenvalue-minimisations  :    10
 total energy-change (2. order) :-0.4040963E+01  (-0.4040963E+01)
 number of electron       2.0000000 magnetization 
 augmentation part        2.0000000 magnetization 

 Free energy of the ion-electron system (eV)
  ---------------------------------------------------
  alpha Z        PSCENC =         0.00122237
  Ewald energy   TEWEN  =        15.37559231
  -1/2 Hartree   DENC   =       -24.67578669
  -exchange  EXHF       =         0.00000000
  -V(xc)+E(xc)   XCENC  =         4.39332526
  PAW double counting   =         1.58351580       -1.60057786
  entropy T*S    EENTRO =         0.00000000
  eigenvalues    EBANDS =       -27.52590461
  atomic energy  EATOM  =        25.04306716
  ---------------------------------------------------
  free energy    TOTEN  =        -7.40554625 eV

  energy without entropy =       -7.40554625  energy(sigma->0) =       -7.40554625


--------------------------------------------------------------------------------------------------------




----------------------------------------- Iteration    1(   3)  ---------------------------------------


     EDDAV:  cpu time    0.32: real time    0.32
       DOS:  cpu time    0.00: real time    0.00
    --------------------------------------------
      LOOP:  cpu time    0.32: real time    0.32

 eigenvalue-minimisations  :    15
 total energy-change (2. order) :-0.8585268E-01  (-0.8585268E-01)
 number of electron       2.0000000 magnetization 
 augmentation part        2.0000000 magnetization 

 Free energy of the ion-electron system (eV)
  ---------------------------------------------------
  alpha Z        PSCENC =         0.00122237
  Ewald energy   TEWEN  =        15.37559231
  -1/2 Hartree   DENC   =       -24.67578669
  -exchange  EXHF       =         0.00000000
  -V(xc)+E(xc)   XCENC  =         4.39332526
  PAW double counting   =         1.58351580       -1.60057786
  entropy T*S    EENTRO =         0.00000000
  eigenvalues    EBANDS =       -27.61175730
  atomic energy  EATOM  =        25.04306716
  ---------------------------------------------------
  free energy    TOTEN  =        -7.49139894 eV

  energy without entropy =       -7.49139894  energy(sigma->0) =       -7.49139894


--------------------------------------------------------------------------------------------------------




----------------------------------------- Iteration    1(   4)  ---------------------------------------


     EDDAV:  cpu time    0.41: real time    0.41
       DOS:  cpu time    0.00: real time    0.00
    --------------------------------------------
      LOOP:  cpu time    0.41: real time    0.41

 eigenvalue-minimisations  :    20
 total energy-change (2. order) :-0.6069829E-04  (-0.6069834E-04)
 number of electron       2.0000000 magnetization 
 augmentation part        2.0000000 magnetization 

 Free energy of the ion-electron system (eV)
  ---------------------------------------------------
  alpha Z        PSCENC =         0.00122237
  Ewald energy   TEWEN  =        15.37559231
  -1/2 Hartree   DENC   =       -24.67578669
  -exchange  EXHF       =         0.00000000
  -V(xc)+E(xc)   XCENC  =         4.39332526
  PAW double counting   =         1.58351580       -1.60057786
  entropy T*S    EENTRO =         0.00000000
  eigenvalues    EBANDS =       -27.61181799
  atomic energy  EATOM  =        25.04306716
  ---------------------------------------------------
  free energy    TOTEN  =        -7.49145964 eV

  energy without entropy =       -7.49145964  energy(sigma->0) =       -7.49145964


--------------------------------------------------------------------------------------------------------




----------------------------------------- Iteration    1(   5)  ---------------------------------------


     EDDAV:  cpu time    0.32: real time    0.32
       DOS:  cpu time    0.00: real time    0.00
    CHARGE:  cpu time    0.12: real time    0.12
    MIXING:  cpu time    0.03: real time    0.03
    --------------------------------------------
      LOOP:  cpu time    0.47: real time    0.47

 eigenvalue-minimisations  :    15
 total energy-change (2. order) :-0.2834767E-08  (-0.2836465E-08)
 number of electron       2.0000025 magnetization 
 augmentation part        0.0473640 magnetization 

 Broyden mixing:
  rms(total) = 0.44733E+00    rms(broyden)= 0.44715E+00
  rms(prec ) = 0.48268E+00
  weight for this iteration     100.00

 Free energy of the ion-electron system (eV)
  ---------------------------------------------------
  alpha Z        PSCENC =         0.00122237
  Ewald energy   TEWEN  =        15.37559231
  -1/2 Hartree   DENC   =       -24.67578669
  -exchange  EXHF       =         0.00000000
  -V(xc)+E(xc)   XCENC  =         4.39332526
  PAW double counting   =         1.58351580       -1.60057786
  entropy T*S    EENTRO =         0.00000000
  eigenvalues    EBANDS =       -27.61181800
  atomic energy  EATOM  =        25.04306716
  ---------------------------------------------------
  free energy    TOTEN  =        -7.49145964 eV

  energy without entropy =       -7.49145964  energy(sigma->0) =       -7.49145964


--------------------------------------------------------------------------------------------------------




----------------------------------------- Iteration    1(   6)  ---------------------------------------


    POTLOK:  cpu time    1.29: real time    1.29
    SETDIJ:  cpu time    0.00: real time    0.00
    EDDIAG:  cpu time    0.06: real time    0.06
  RMM-DIIS:  cpu time    0.20: real time    0.20
    ORTHCH:  cpu time    0.00: real time    0.00
       DOS:  cpu time    0.00: real time    0.00
    CHARGE:  cpu time    0.12: real time    0.12
    MIXING:  cpu time    0.03: real time    0.03
    --------------------------------------------
      LOOP:  cpu time    1.69: real time    1.69

 eigenvalue-minimisations  :    10
 total energy-change (2. order) : 0.4555021E+00  (-0.1747496E-01)
 number of electron       2.0000024 magnetization 
 augmentation part        0.0454892 magnetization 

 Broyden mixing:
  rms(total) = 0.24383E+00    rms(broyden)= 0.24383E+00
  rms(prec ) = 0.26528E+00
  weight for this iteration     100.00

 eigenvalues of (default mixing * dielectric matrix)
  average eigenvalue GAMMA=   2.1782
  2.1782

 Free energy of the ion-electron system (eV)
  ---------------------------------------------------
  alpha Z        PSCENC =         0.00122237
  Ewald energy   TEWEN  =        15.37559231
  -1/2 Hartree   DENC   =       -27.20833689
  -exchange  EXHF       =         0.00000000
  -V(xc)+E(xc)   XCENC  =         4.75531456
  PAW double counting   =         4.35398959       -4.38560472
  entropy T*S    EENTRO =         0.00000000
  eigenvalues    EBANDS =       -24.97120186
  atomic energy  EATOM  =        25.04306716
  ---------------------------------------------------
  free energy    TOTEN  =        -7.03595750 eV

  energy without entropy =       -7.03595750  energy(sigma->0) =       -7.03595750


--------------------------------------------------------------------------------------------------------




----------------------------------------- Iteration    1(   7)  ---------------------------------------


    POTLOK:  cpu time    1.29: real time    1.29
    SETDIJ:  cpu time    0.00: real time    0.00
    EDDIAG:  cpu time    0.06: real time    0.06
  RMM-DIIS:  cpu time    0.20: real time    0.20
    ORTHCH:  cpu time    0.00: real time    0.00
       DOS:  cpu time    0.00: real time    0.00
    CHARGE:  cpu time    0.12: real time    0.12
    MIXING:  cpu time    0.03: real time    0.03
    --------------------------------------------
      LOOP:  cpu time    1.70: real time    1.70

 eigenvalue-minimisations  :    10
 total energy-change (2. order) : 0.2512118E+00  (-0.5044022E-01)
 number of electron       2.0000022 magnetization 
 augmentation part        0.0424693 magnetization 

 Broyden mixing:
  rms(total) = 0.26472E-01    rms(broyden)= 0.26352E-01
  rms(prec ) = 0.29984E-01
  weight for this iteration     100.00

 eigenvalues of (default mixing * dielectric matrix)
  average eigenvalue GAMMA=   2.3913
  2.3913  2.3913

 Free energy of the ion-electron system (eV)
  ---------------------------------------------------
  alpha Z        PSCENC =         0.00122237
  Ewald energy   TEWEN  =        15.37559231
  -1/2 Hartree   DENC   =       -31.08644508
  -exchange  EXHF       =         0.00000000
  -V(xc)+E(xc)   XCENC  =         5.31731789
  PAW double counting   =         9.37511499       -9.42925158
  entropy T*S    EENTRO =         0.00000000
  eigenvalues    EBANDS =       -21.38136372
  atomic energy  EATOM  =        25.04306716
  ---------------------------------------------------
  free energy    TOTEN  =        -6.78474567 eV

  energy without entropy =       -6.78474567  energy(sigma->0) =       -6.78474567


--------------------------------------------------------------------------------------------------------




----------------------------------------- Iteration    1(   8)  ---------------------------------------


    POTLOK:  cpu time    1.30: real time    1.30
    SETDIJ:  cpu time    0.00: real time    0.00
    EDDIAG:  cpu time    0.06: real time    0.06
  RMM-DIIS:  cpu time    0.20: real time    0.20
    ORTHCH:  cpu time    0.00: real time    0.00
       DOS:  cpu time    0.00: real time    0.00
    CHARGE:  cpu time    0.12: real time    0.12
    MIXING:  cpu time    0.03: real time    0.03
    --------------------------------------------
      LOOP:  cpu time    1.71: real time    1.71

 eigenvalue-minimisations  :    10
 total energy-change (2. order) :-0.1750188E-02  (-0.6112885E-03)
 number of electron       2.0000022 magnetization 
 augmentation part        0.0425547 magnetization 

 Broyden mixing:
  rms(total) = 0.20952E-01    rms(broyden)= 0.20948E-01
  rms(prec ) = 0.23663E-01
  weight for this iteration     100.00

 eigenvalues of (default mixing * dielectric matrix)
  average eigenvalue GAMMA=   2.0395
  1.0765  2.1887  2.8534

 Free energy of the ion-electron system (eV)
  ---------------------------------------------------
  alpha Z        PSCENC =         0.00122237
  Ewald energy   TEWEN  =        15.37559231
  -1/2 Hartree   DENC   =       -30.99150426
  -exchange  EXHF       =         0.00000000
  -V(xc)+E(xc)   XCENC  =         5.29237822
  PAW double counting   =         8.35216322       -8.40076542
  entropy T*S    EENTRO =         0.00000000
  eigenvalues    EBANDS =       -21.45864946
  atomic energy  EATOM  =        25.04306716
  ---------------------------------------------------
  free energy    TOTEN  =        -6.78649586 eV

  energy without entropy =       -6.78649586  energy(sigma->0) =       -6.78649586


--------------------------------------------------------------------------------------------------------




----------------------------------------- Iteration    1(   9)  ---------------------------------------


    POTLOK:  cpu time    1.30: real time    1.30
    SETDIJ:  cpu time    0.00: real time    0.00
    EDDIAG:  cpu time    0.06: real time    0.06
  RMM-DIIS:  cpu time    0.20: real time    0.20
    ORTHCH:  cpu time    0.00: real time    0.00
       DOS:  cpu time    0.00: real time    0.00
    CHARGE:  cpu time    0.12: real time    0.12
    MIXING:  cpu time    0.03: real time    0.03
    --------------------------------------------
      LOOP:  cpu time    1.71: real time    1.72

 eigenvalue-minimisations  :    10
 total energy-change (2. order) : 0.3592504E-02  (-0.6208686E-03)
 number of electron       2.0000022 magnetization 
 augmentation part        0.0423075 magnetization 

 Broyden mixing:
  rms(total) = 0.29987E-02    rms(broyden)= 0.29863E-02
  rms(prec ) = 0.50026E-02
  weight for this iteration     100.00

 eigenvalues of (default mixing * dielectric matrix)
  average eigenvalue GAMMA=   2.6536
  4.6035  1.0206  2.5556  2.4347

 Free energy of the ion-electron system (eV)
  ---------------------------------------------------
  alpha Z        PSCENC =         0.00122237
  Ewald energy   TEWEN  =        15.37559231
  -1/2 Hartree   DENC   =       -31.47900915
  -exchange  EXHF       =         0.00000000
  -V(xc)+E(xc)   XCENC  =         5.35620018
  PAW double counting   =         8.82185553       -8.87211539
  entropy T*S    EENTRO =         0.00000000
  eigenvalues    EBANDS =       -21.02971636
  atomic energy  EATOM  =        25.04306716
  ---------------------------------------------------
  free energy    TOTEN  =        -6.78290336 eV

  energy without entropy =       -6.78290336  energy(sigma->0) =       -6.78290336


--------------------------------------------------------------------------------------------------------




----------------------------------------- Iteration    1(  10)  ---------------------------------------


    POTLOK:  cpu time    1.31: real time    1.31
    SETDIJ:  cpu time    0.00: real time    0.00
    EDDIAG:  cpu time    0.06: real time    0.06
  RMM-DIIS:  cpu time    0.20: real time    0.20
    ORTHCH:  cpu time    0.00: real time    0.00
       DOS:  cpu time    0.00: real time    0.00
    CHARGE:  cpu time    0.12: real time    0.12
    MIXING:  cpu time    0.03: real time    0.03
    --------------------------------------------
      LOOP:  cpu time    1.72: real time    1.72

 eigenvalue-minimisations  :    10
 total energy-change (2. order) :-0.1960338E-02  (-0.1378312E-03)
 number of electron       2.0000022 magnetization 
 augmentation part        0.0422246 magnetization 

 Broyden mixing:
  rms(total) = 0.43616E-02    rms(broyden)= 0.43600E-02
  rms(prec ) = 0.48328E-02
  weight for this iteration     100.00

 eigenvalues of (default mixing * dielectric matrix)
  average eigenvalue GAMMA=   2.1937
  4.2616  2.6196  2.2796  0.9924  0.8151

 Free energy of the ion-electron system (eV)
  ---------------------------------------------------
  alpha Z        PSCENC =         0.00122237
  Ewald energy   TEWEN  =        15.37559231
  -1/2 Hartree   DENC   =       -31.66521791
  -exchange  EXHF       =         0.00000000
  -V(xc)+E(xc)   XCENC  =         5.36970408
  PAW double counting   =         8.90982017       -8.96074203
  entropy T*S    EENTRO =         0.00000000
  eigenvalues    EBANDS =       -20.85830984
  atomic energy  EATOM  =        25.04306716
  ---------------------------------------------------
  free energy    TOTEN  =        -6.78486369 eV

  energy without entropy =       -6.78486369  energy(sigma->0) =       -6.78486369


--------------------------------------------------------------------------------------------------------




----------------------------------------- Iteration    1(  11)  ---------------------------------------


    POTLOK:  cpu time    1.32: real time    1.32
    SETDIJ:  cpu time    0.00: real time    0.00
    EDDIAG:  cpu time    0.06: real time    0.06
  RMM-DIIS:  cpu time    0.20: real time    0.20
    ORTHCH:  cpu time    0.00: real time    0.00
       DOS:  cpu time    0.00: real time    0.00
    CHARGE:  cpu time    0.12: real time    0.12
    MIXING:  cpu time    0.03: real time    0.03
    --------------------------------------------
      LOOP:  cpu time    1.73: real time    1.73

 eigenvalue-minimisations  :    10
 total energy-change (2. order) :-0.5005899E-03  (-0.8550538E-05)
 number of electron       2.0000022 magnetization 
 augmentation part        0.0422477 magnetization 

 Broyden mixing:
  rms(total) = 0.95506E-03    rms(broyden)= 0.95503E-03
  rms(prec ) = 0.16095E-02
  weight for this iteration     100.00

 eigenvalues of (default mixing * dielectric matrix)
  average eigenvalue GAMMA=   2.7122
  5.5247  3.8640  2.6400  2.1950  1.0614  0.9882

 Free energy of the ion-electron system (eV)
  ---------------------------------------------------
  alpha Z        PSCENC =         0.00122237
  Ewald energy   TEWEN  =        15.37559231
  -1/2 Hartree   DENC   =       -31.61196875
  -exchange  EXHF       =         0.00000000
  -V(xc)+E(xc)   XCENC  =         5.36187181
  PAW double counting   =         8.81578518       -8.86622461
  entropy T*S    EENTRO =         0.00000000
  eigenvalues    EBANDS =       -20.90470975
  atomic energy  EATOM  =        25.04306716
  ---------------------------------------------------
  free energy    TOTEN  =        -6.78536428 eV

  energy without entropy =       -6.78536428  energy(sigma->0) =       -6.78536428


--------------------------------------------------------------------------------------------------------




----------------------------------------- Iteration    1(  12)  ---------------------------------------


    POTLOK:  cpu time    1.33: real time    1.33
    SETDIJ:  cpu time    0.00: real time    0.00
    EDDIAG:  cpu time    0.06: real time    0.06
  RMM-DIIS:  cpu time    0.20: real time    0.20
    ORTHCH:  cpu time    0.00: real time    0.00
       DOS:  cpu time    0.00: real time    0.00
    CHARGE:  cpu time    0.11: real time    0.11
    MIXING:  cpu time    0.04: real time    0.04
    --------------------------------------------
      LOOP:  cpu time    1.74: real time    1.81

 eigenvalue-minimisations  :    10
 total energy-change (2. order) :-0.1953501E-02  (-0.1126137E-03)
 number of electron       2.0000022 magnetization 
 augmentation part        0.0422478 magnetization 

 Broyden mixing:
  rms(total) = 0.88577E-03    rms(broyden)= 0.88572E-03
  rms(prec ) = 0.10079E-02
  weight for this iteration     100.00

 eigenvalues of (default mixing * dielectric matrix)
  average eigenvalue GAMMA=   2.5551
  5.5928  3.9200  2.6674  2.1032  1.4661  1.0682  1.0682

 Free energy of the ion-electron system (eV)
  ---------------------------------------------------
  alpha Z        PSCENC =         0.00122237
  Ewald energy   TEWEN  =        15.37559231
  -1/2 Hartree   DENC   =       -31.60946161
  -exchange  EXHF       =         0.00000000
  -V(xc)+E(xc)   XCENC  =         5.35869713
  PAW double counting   =         8.78014342       -8.83032335
  entropy T*S    EENTRO =         0.00000000
  eigenvalues    EBANDS =       -20.90625520
  atomic energy  EATOM  =        25.04306716
  ---------------------------------------------------
  free energy    TOTEN  =        -6.78731778 eV

  energy without entropy =       -6.78731778  energy(sigma->0) =       -6.78731778


--------------------------------------------------------------------------------------------------------




----------------------------------------- Iteration    1(  13)  ---------------------------------------


    POTLOK:  cpu time    1.33: real time    1.34
    SETDIJ:  cpu time    0.00: real time    0.00
    EDDIAG:  cpu time    0.06: real time    0.06
  RMM-DIIS:  cpu time    0.20: real time    0.20
    ORTHCH:  cpu time    0.00: real time    0.00
       DOS:  cpu time    0.00: real time    0.00
    CHARGE:  cpu time    0.12: real time    0.12
    MIXING:  cpu time    0.04: real time    0.04
    --------------------------------------------
      LOOP:  cpu time    1.75: real time    1.75

 eigenvalue-minimisations  :    10
 total energy-change (2. order) :-0.1068607E-03  (-0.1521407E-05)
 number of electron       2.0000022 magnetization 
 augmentation part        0.0422371 magnetization 

 Broyden mixing:
  rms(total) = 0.28325E-03    rms(broyden)= 0.28307E-03
  rms(prec ) = 0.43657E-03
  weight for this iteration     100.00

 eigenvalues of (default mixing * dielectric matrix)
  average eigenvalue GAMMA=   2.7698
  6.8058  4.5764  3.0674  2.4902  2.1745  1.0666  1.0666  0.9109

 Free energy of the ion-electron system (eV)
  ---------------------------------------------------
  alpha Z        PSCENC =         0.00122237
  Ewald energy   TEWEN  =        15.37559231
  -1/2 Hartree   DENC   =       -31.61995790
  -exchange  EXHF       =         0.00000000
  -V(xc)+E(xc)   XCENC  =         5.35973039
  PAW double counting   =         8.80207678       -8.85239049
  entropy T*S    EENTRO =         0.00000000
  eigenvalues    EBANDS =       -20.89676526
  atomic energy  EATOM  =        25.04306716
  ---------------------------------------------------
  free energy    TOTEN  =        -6.78742465 eV

  energy without entropy =       -6.78742465  energy(sigma->0) =       -6.78742465


--------------------------------------------------------------------------------------------------------




----------------------------------------- Iteration    1(  14)  ---------------------------------------


    POTLOK:  cpu time    1.34: real time    1.34
    SETDIJ:  cpu time    0.00: real time    0.00
    EDDIAG:  cpu time    0.06: real time    0.06
  RMM-DIIS:  cpu time    0.20: real time    0.20
    ORTHCH:  cpu time    0.00: real time    0.00
       DOS:  cpu time    0.00: real time    0.00
    CHARGE:  cpu time    0.12: real time    0.12
    MIXING:  cpu time    0.04: real time    0.04
    --------------------------------------------
      LOOP:  cpu time    1.76: real time    1.76

 eigenvalue-minimisations  :    10
 total energy-change (2. order) :-0.1955582E-03  (-0.1325712E-05)
 number of electron       2.0000022 magnetization 
 augmentation part        0.0422413 magnetization 

 Broyden mixing:
  rms(total) = 0.18753E-03    rms(broyden)= 0.18751E-03
  rms(prec ) = 0.24268E-03
  weight for this iteration     100.00

 eigenvalues of (default mixing * dielectric matrix)
  average eigenvalue GAMMA=   2.6834
  7.1729  4.6259  3.3486  2.6679  2.1607  0.9479  1.0823  1.0722  1.0722

 Free energy of the ion-electron system (eV)
  ---------------------------------------------------
  alpha Z        PSCENC =         0.00122237
  Ewald energy   TEWEN  =        15.37559231
  -1/2 Hartree   DENC   =       -31.61589147
  -exchange  EXHF       =         0.00000000
  -V(xc)+E(xc)   XCENC  =         5.35838195
  PAW double counting   =         8.79419376       -8.84448776
  entropy T*S    EENTRO =         0.00000000
  eigenvalues    EBANDS =       -20.89969853
  atomic energy  EATOM  =        25.04306716
  ---------------------------------------------------
  free energy    TOTEN  =        -6.78762020 eV

  energy without entropy =       -6.78762020  energy(sigma->0) =       -6.78762020


--------------------------------------------------------------------------------------------------------




----------------------------------------- Iteration    1(  15)  ---------------------------------------


    POTLOK:  cpu time    1.34: real time    1.34
    SETDIJ:  cpu time    0.00: real time    0.04
    EDDIAG:  cpu time    0.06: real time    0.06
  RMM-DIIS:  cpu time    0.20: real time    0.20
    ORTHCH:  cpu time    0.00: real time    0.00
       DOS:  cpu time    0.00: real time    0.00
    CHARGE:  cpu time    0.12: real time    0.12
    MIXING:  cpu time    0.05: real time    0.05
    --------------------------------------------
      LOOP:  cpu time    1.76: real time    1.81

 eigenvalue-minimisations  :    10
 total energy-change (2. order) :-0.2530983E-04  (-0.1431234E-06)
 number of electron       2.0000022 magnetization 
 augmentation part        0.0422398 magnetization 

 Broyden mixing:
  rms(total) = 0.88334E-04    rms(broyden)= 0.88333E-04
  rms(prec ) = 0.13276E-03
  weight for this iteration     100.00

 eigenvalues of (default mixing * dielectric matrix)
  average eigenvalue GAMMA=   2.9002
  8.1837  4.9138  4.2121  2.9176  2.5342  2.1699  1.0620  1.0620  0.9735  0.9735

 Free energy of the ion-electron system (eV)
  ---------------------------------------------------
  alpha Z        PSCENC =         0.00122237
  Ewald energy   TEWEN  =        15.37559231
  -1/2 Hartree   DENC   =       -31.62108331
  -exchange  EXHF       =         0.00000000
  -V(xc)+E(xc)   XCENC  =         5.35896094
  PAW double counting   =         8.79905358       -8.84936832
  entropy T*S    EENTRO =         0.00000000
  eigenvalues    EBANDS =       -20.89509023
  atomic energy  EATOM  =        25.04306716
  ---------------------------------------------------
  free energy    TOTEN  =        -6.78764551 eV

  energy without entropy =       -6.78764551  energy(sigma->0) =       -6.78764551


--------------------------------------------------------------------------------------------------------




----------------------------------------- Iteration    1(  16)  ---------------------------------------


    POTLOK:  cpu time    1.33: real time    1.33
    SETDIJ:  cpu time    0.00: real time    0.00
    EDDIAG:  cpu time    0.06: real time    0.06
  RMM-DIIS:  cpu time    0.20: real time    0.20
    ORTHCH:  cpu time    0.00: real time    0.00
       DOS:  cpu time    0.00: real time    0.00
    CHARGE:  cpu time    0.12: real time    0.12
    MIXING:  cpu time    0.05: real time    0.05
    --------------------------------------------
      LOOP:  cpu time    1.75: real time    1.76

 eigenvalue-minimisations  :    10
 total energy-change (2. order) :-0.4752542E-04  (-0.3514021E-06)
 number of electron       2.0000022 magnetization 
 augmentation part        0.0422386 magnetization 

 Broyden mixing:
  rms(total) = 0.90214E-04    rms(broyden)= 0.90205E-04
  rms(prec ) = 0.10325E-03
  weight for this iteration     100.00

 eigenvalues of (default mixing * dielectric matrix)
  average eigenvalue GAMMA=   3.0058
  8.4933  5.2885  4.4357  3.0540  3.0540  2.4357  2.1922  0.9675  0.9987  1.0723
  1.0723

 Free energy of the ion-electron system (eV)
  ---------------------------------------------------
  alpha Z        PSCENC =         0.00122237
  Ewald energy   TEWEN  =        15.37559231
  -1/2 Hartree   DENC   =       -31.62504888
  -exchange  EXHF       =         0.00000000
  -V(xc)+E(xc)   XCENC  =         5.35927333
  PAW double counting   =         8.79973532       -8.85004443
  entropy T*S    EENTRO =         0.00000000
  eigenvalues    EBANDS =       -20.89149022
  atomic energy  EATOM  =        25.04306716
  ---------------------------------------------------
  free energy    TOTEN  =        -6.78769304 eV

  energy without entropy =       -6.78769304  energy(sigma->0) =       -6.78769304


--------------------------------------------------------------------------------------------------------




----------------------------------------- Iteration    1(  17)  ---------------------------------------


    POTLOK:  cpu time    1.31: real time    1.33
    SETDIJ:  cpu time    0.00: real time    0.00
    EDDIAG:  cpu time    0.06: real time    0.06
  RMM-DIIS:  cpu time    0.18: real time    0.18
    ORTHCH:  cpu time    0.00: real time    0.00
       DOS:  cpu time    0.00: real time    0.00
    CHARGE:  cpu time    0.12: real time    0.12
    MIXING:  cpu time    0.06: real time    0.06
    --------------------------------------------
      LOOP:  cpu time    1.72: real time    1.74

 eigenvalue-minimisations  :     9
 total energy-change (2. order) :-0.9345512E-05  (-0.4005350E-07)
 number of electron       2.0000022 magnetization 
 augmentation part        0.0422395 magnetization 

 Broyden mixing:
  rms(total) = 0.56923E-04    rms(broyden)= 0.56922E-04
  rms(prec ) = 0.62067E-04
  weight for this iteration     100.00

 eigenvalues of (default mixing * dielectric matrix)
  average eigenvalue GAMMA=   2.9647
  8.9613  6.0822  4.3098  3.8115  2.7948  2.4397  2.1779  1.0780  1.0780  0.9558
  0.9435  0.9435

 Free energy of the ion-electron system (eV)
  ---------------------------------------------------
  alpha Z        PSCENC =         0.00122237
  Ewald energy   TEWEN  =        15.37559231
  -1/2 Hartree   DENC   =       -31.62274503
  -exchange  EXHF       =         0.00000000
  -V(xc)+E(xc)   XCENC  =         5.35896752
  PAW double counting   =         8.79648309       -8.84677598
  entropy T*S    EENTRO =         0.00000000
  eigenvalues    EBANDS =       -20.89351382
  atomic energy  EATOM  =        25.04306716
  ---------------------------------------------------
  free energy    TOTEN  =        -6.78770238 eV

  energy without entropy =       -6.78770238  energy(sigma->0) =       -6.78770238


--------------------------------------------------------------------------------------------------------




----------------------------------------- Iteration    1(  18)  ---------------------------------------


    POTLOK:  cpu time    1.33: real time    1.34
    SETDIJ:  cpu time    0.00: real time    0.04
    EDDIAG:  cpu time    0.06: real time    0.06
  RMM-DIIS:  cpu time    0.18: real time    0.18
    ORTHCH:  cpu time    0.00: real time    0.00
       DOS:  cpu time    0.00: real time    0.00
    CHARGE:  cpu time    0.12: real time    0.12
    MIXING:  cpu time    0.06: real time    0.06
    --------------------------------------------
      LOOP:  cpu time    1.75: real time    1.79

 eigenvalue-minimisations  :     9
 total energy-change (2. order) :-0.4815739E-05  (-0.1527396E-07)
 number of electron       2.0000022 magnetization 
 augmentation part        0.0422397 magnetization 

 Broyden mixing:
  rms(total) = 0.29547E-04    rms(broyden)= 0.29546E-04
  rms(prec ) = 0.32595E-04
  weight for this iteration     100.00

 eigenvalues of (default mixing * dielectric matrix)
  average eigenvalue GAMMA=   3.0603
  9.2967  6.4869  4.7103  3.7285  2.9425  2.9425  2.4226  2.1533  1.0733  1.0733
  0.9561  0.9986  0.9986

 Free energy of the ion-electron system (eV)
  ---------------------------------------------------
  alpha Z        PSCENC =         0.00122237
  Ewald energy   TEWEN  =        15.37559231
  -1/2 Hartree   DENC   =       -31.62270947
  -exchange  EXHF       =         0.00000000
  -V(xc)+E(xc)   XCENC  =         5.35895491
  PAW double counting   =         8.79739735       -8.84769696
  entropy T*S    EENTRO =         0.00000000
  eigenvalues    EBANDS =       -20.89353486
  atomic energy  EATOM  =        25.04306716
  ---------------------------------------------------
  free energy    TOTEN  =        -6.78770720 eV

  energy without entropy =       -6.78770720  energy(sigma->0) =       -6.78770720


--------------------------------------------------------------------------------------------------------




----------------------------------------- Iteration    1(  19)  ---------------------------------------


    POTLOK:  cpu time    1.35: real time    1.35
    SETDIJ:  cpu time    0.00: real time    0.00
    EDDIAG:  cpu time    0.06: real time    0.06
  RMM-DIIS:  cpu time    0.18: real time    0.18
    ORTHCH:  cpu time    0.00: real time    0.00
       DOS:  cpu time    0.00: real time    0.00
    CHARGE:  cpu time    0.12: real time    0.12
    MIXING:  cpu time    0.07: real time    0.07
    --------------------------------------------
      LOOP:  cpu time    1.77: real time    1.77

 eigenvalue-minimisations  :     9
 total energy-change (2. order) :-0.1085480E-05  (-0.4552650E-08)
 number of electron       2.0000022 magnetization 
 augmentation part        0.0422394 magnetization 

 Broyden mixing:
  rms(total) = 0.23151E-04    rms(broyden)= 0.23150E-04
  rms(prec ) = 0.24591E-04
  weight for this iteration     100.00

 eigenvalues of (default mixing * dielectric matrix)
  average eigenvalue GAMMA=   2.9998
  9.5299  6.8726  4.7415  4.1353  3.2501  2.7387  2.3803  2.1989  0.9688  0.9688
  1.0736  1.0736  1.0322  1.0322

 Free energy of the ion-electron system (eV)
  ---------------------------------------------------
  alpha Z        PSCENC =         0.00122237
  Ewald energy   TEWEN  =        15.37559231
  -1/2 Hartree   DENC   =       -31.62352050
  -exchange  EXHF       =         0.00000000
  -V(xc)+E(xc)   XCENC  =         5.35905534
  PAW double counting   =         8.79848244       -8.84878771
  entropy T*S    EENTRO =         0.00000000
  eigenvalues    EBANDS =       -20.89281968
  atomic energy  EATOM  =        25.04306716
  ---------------------------------------------------
  free energy    TOTEN  =        -6.78770829 eV

  energy without entropy =       -6.78770829  energy(sigma->0) =       -6.78770829


--------------------------------------------------------------------------------------------------------




----------------------------------------- Iteration    1(  20)  ---------------------------------------


    POTLOK:  cpu time    1.35: real time    1.35
    SETDIJ:  cpu time    0.00: real time    0.00
    EDDIAG:  cpu time    0.06: real time    0.06
  RMM-DIIS:  cpu time    0.17: real time    0.17
    ORTHCH:  cpu time    0.00: real time    0.00
       DOS:  cpu time    0.00: real time    0.00
    --------------------------------------------
      LOOP:  cpu time    1.58: real time    1.58

 eigenvalue-minimisations  :     8
 total energy-change (2. order) :-0.6706592E-07  ( 0.0000000E+00)
 number of electron       2.0000022 magnetization 
 augmentation part        0.0422394 magnetization 

 Free energy of the ion-electron system (eV)
  ---------------------------------------------------
  alpha Z        PSCENC =         0.00122237
  Ewald energy   TEWEN  =        15.37559231
  -1/2 Hartree   DENC   =       -31.62326100
  -exchange  EXHF       =         0.00000000
  -V(xc)+E(xc)   XCENC  =         5.35901785
  PAW double counting   =         8.79785690       -8.84815883
  entropy T*S    EENTRO =         0.00000000
  eigenvalues    EBANDS =       -20.89304510
  atomic energy  EATOM  =        25.04306716
  ---------------------------------------------------
  free energy    TOTEN  =        -6.78770835 eV

  energy without entropy =       -6.78770835  energy(sigma->0) =       -6.78770835


--------------------------------------------------------------------------------------------------------




 average (electrostatic) potential at core
  the test charge radii are     0.5201
  (the norm of the test charge is              1.0001)
       1 -41.7084       2 -41.7074
 
 
 
 E-fermi :  -9.9533     XC(G=0):  -0.0352     alpha+bet : -0.0069


 k-point   1 :       0.0000    0.0000    0.0000
  band No.  band energies     occupation 
      1     -10.4465      2.00000
      2      -0.0152      0.00000
      3       0.1742      0.00000
      4       0.2980      0.00000
      5       0.3520      0.00000


--------------------------------------------------------------------------------------------------------


 soft charge-density along one line, spin component           1
         0         1         2         3         4         5         6         7         8         9
 total charge-density along one line
 
 pseudopotential strength for first ion, spin component:           1
 -2.361  -0.011   0.000  -0.002   0.000
 -0.011   0.050   0.000  -0.002   0.000
  0.000   0.000  -0.342   0.000   0.000
 -0.002  -0.002   0.000  -0.335   0.000
  0.000   0.000   0.000   0.000  -0.342
 total augmentation occupancy for first ion, spin component:           1
  1.675  -0.476   0.000   0.285   0.000
 -0.476   0.135   0.000  -0.081   0.000
  0.000   0.000   0.000   0.000   0.000
  0.285  -0.081   0.000   0.048   0.000
  0.000   0.000   0.000   0.000   0.000


------------------------ aborting loop because EDIFF is reached ----------------------------------------


    CHARGE:  cpu time    0.12: real time    0.12
    FORLOC:  cpu time    0.02: real time    0.02
    FORNL :  cpu time    0.08: real time    0.08
    FORHAR:  cpu time    0.33: real time    0.33
    MIXING:  cpu time    0.07: real time    0.07

 VOLUME and BASIS-vectors are now :
 -----------------------------------------------------------------------------
  energy-cutoff  :      400.00
  volume of cell :     8000.00
      direct lattice vectors                 reciprocal lattice vectors
    20.000000000  0.000000000  0.000000000     0.050000000  0.000000000  0.000000000
     0.000000000 20.000000000  0.000000000     0.000000000  0.050000000  0.000000000
     0.000000000  0.000000000 20.000000000     0.000000000  0.000000000  0.050000000

  length of vectors
    20.000000000 20.000000000 20.000000000     0.050000000  0.050000000  0.050000000


 FORCES acting on ions
    electron-ion (+dipol)            ewald-force                    non-local-force                 convergence-correction
 -----------------------------------------------------------------------------------------------
   -.884E-08 -.307E-07 0.207E+02   0.894E-19 -.132E-18 -.263E+02   -.167E-08 -.689E-08 0.524E+01   -.100E-07 -.129E-08 0.102E-04
   -.887E-08 -.307E-07 -.207E+02   -.358E-18 -.267E-18 0.263E+02   -.169E-08 -.689E-08 -.524E+01   -.100E-07 -.129E-08 -.654E-05
 -----------------------------------------------------------------------------------------------
   -.177E-07 -.614E-07 -.595E-03   -.269E-18 -.399E-18 0.000E+00   -.335E-08 -.138E-07 -.175E-02   -.200E-07 -.259E-08 0.363E-05
 
 
 POSITION                                       TOTAL-FORCE (eV/Angst)
 -----------------------------------------------------------------------------------
      0.00000      0.00000      0.00000         0.000000      0.000000     -0.335591
      0.00000      0.00000      0.74000         0.000000      0.000000      0.335591
 -----------------------------------------------------------------------------------
    total drift:                                0.000000      0.000000     -0.002343


--------------------------------------------------------------------------------------------------------



  FREE ENERGIE OF THE ION-ELECTRON SYSTEM (eV)
  ---------------------------------------------------
  free  energy   TOTEN  =        -6.78770835 eV

  energy  without entropy=       -6.78770835  energy(sigma->0) =       -6.78770835
 


--------------------------------------------------------------------------------------------------------


    POTLOK:  cpu time    1.32: real time    1.33


--------------------------------------------------------------------------------------------------------


 stress matrix after NEB project (eV)
      0.00000      0.00000      0.00000
      0.00000      0.00000      0.00000
      0.00000      0.00000      0.00000
  FORCES: max atom, RMS     0.335591    0.335591
  FORCE total and by dimension    0.474598    0.335591
  Stress total and by dimension    0.000000    0.000000


--------------------------------------------------------------------------------------------------------


    WAVPRE:  cpu time    0.09: real time    0.09
 FEWALD executed in parallel
    FEWALD:  cpu time    0.00: real time    0.00

 real space projection operators:
  total allocation   :         75.20 KBytes
  max/ min on nodes  :         18.05          5.74

    ORTHCH:  cpu time    0.03: real time    0.03
     LOOP+:  cpu time   30.94: real time   31.14


----------------------------------------- Iteration    2(   1)  ---------------------------------------


    POTLOK:  cpu time    1.31: real time    1.32
    SETDIJ:  cpu time    0.00: real time    0.00
     EDDAV:  cpu time    0.32: real time    0.33
       DOS:  cpu time    0.00: real time    0.00
    CHARGE:  cpu time    0.12: real time    0.12
    MIXING:  cpu time    0.03: real time    0.03
    --------------------------------------------
      LOOP:  cpu time    1.78: real time    1.79

 eigenvalue-minimisations  :    15
 total energy-change (2. order) :-0.1220474E-02  (-0.7879415E-02)
 number of electron       2.0000019 magnetization 
 augmentation part        0.0412306 magnetization 

 Broyden mixing:
  rms(total) = 0.13938E-01    rms(broyden)= 0.13917E-01
  rms(prec ) = 0.14672E-01
  weight for this iteration     100.00

 Free energy of the ion-electron system (eV)
  ---------------------------------------------------
  alpha Z        PSCENC =         0.00122237
  Ewald energy   TEWEN  =        14.95906852
  -1/2 Hartree   DENC   =       -31.48548095
  -exchange  EXHF       =         0.00000000
  -V(xc)+E(xc)   XCENC  =         5.34208087
  PAW double counting   =         8.79773407       -8.84803520
  entropy T*S    EENTRO =         0.00000000
  eigenvalues    EBANDS =       -20.59858560
  atomic energy  EATOM  =        25.04306716
  ---------------------------------------------------
  free energy    TOTEN  =        -6.78892876 eV

  energy without entropy =       -6.78892876  energy(sigma->0) =       -6.78892876


--------------------------------------------------------------------------------------------------------




----------------------------------------- Iteration    2(   2)  ---------------------------------------


    POTLOK:  cpu time    1.34: real time    1.35
    SETDIJ:  cpu time    0.00: real time    0.00
    EDDIAG:  cpu time    0.06: real time    0.06
  RMM-DIIS:  cpu time    0.20: real time    0.20
    ORTHCH:  cpu time    0.00: real time    0.00
       DOS:  cpu time    0.00: real time    0.00
    CHARGE:  cpu time    0.12: real time    0.12
    MIXING:  cpu time    0.03: real time    0.03
    --------------------------------------------
      LOOP:  cpu time    1.75: real time    1.75

 eigenvalue-minimisations  :    10
 total energy-change (2. order) : 0.2903008E-03  (-0.2307173E-04)
 number of electron       2.0000019 magnetization 
 augmentation part        0.0412890 magnetization 

 Broyden mixing:
  rms(total) = 0.74850E-02    rms(broyden)= 0.74840E-02
  rms(prec ) = 0.78828E-02
  weight for this iteration     100.00

 eigenvalues of (default mixing * dielectric matrix)
  average eigenvalue GAMMA=   2.1568
  2.1568

 Free energy of the ion-electron system (eV)
  ---------------------------------------------------
  alpha Z        PSCENC =         0.00122237
  Ewald energy   TEWEN  =        14.95906852
  -1/2 Hartree   DENC   =       -31.41289894
  -exchange  EXHF       =         0.00000000
  -V(xc)+E(xc)   XCENC  =         5.33180020
  PAW double counting   =         8.58277414       -8.63207797
  entropy T*S    EENTRO =         0.00000000
  eigenvalues    EBANDS =       -20.66159395
  atomic energy  EATOM  =        25.04306716
  ---------------------------------------------------
  free energy    TOTEN  =        -6.78863846 eV

  energy without entropy =       -6.78863846  energy(sigma->0) =       -6.78863846


--------------------------------------------------------------------------------------------------------




----------------------------------------- Iteration    2(   3)  ---------------------------------------


    POTLOK:  cpu time    1.34: real time    1.35
    SETDIJ:  cpu time    0.00: real time    0.05
    EDDIAG:  cpu time    0.06: real time    0.06
  RMM-DIIS:  cpu time    0.20: real time    0.20
    ORTHCH:  cpu time    0.00: real time    0.00
       DOS:  cpu time    0.00: real time    0.00
    CHARGE:  cpu time    0.12: real time    0.12
    MIXING:  cpu time    0.03: real time    0.03
    --------------------------------------------
      LOOP:  cpu time    1.75: real time    1.80

 eigenvalue-minimisations  :    10
 total energy-change (2. order) : 0.1240248E-03  (-0.3223742E-04)
 number of electron       2.0000019 magnetization 
 augmentation part        0.0413569 magnetization 

 Broyden mixing:
  rms(total) = 0.46021E-03    rms(broyden)= 0.45855E-03
  rms(prec ) = 0.49596E-03
  weight for this iteration     100.00

 eigenvalues of (default mixing * dielectric matrix)
  average eigenvalue GAMMA=   2.3756
  2.1718  2.5795

 Free energy of the ion-electron system (eV)
  ---------------------------------------------------
  alpha Z        PSCENC =         0.00122237
  Ewald energy   TEWEN  =        14.95906852
  -1/2 Hartree   DENC   =       -31.32944834
  -exchange  EXHF       =         0.00000000
  -V(xc)+E(xc)   XCENC  =         5.31995844
  PAW double counting   =         8.32892165       -8.37706102
  entropy T*S    EENTRO =         0.00000000
  eigenvalues    EBANDS =       -20.73424321
  atomic energy  EATOM  =        25.04306716
  ---------------------------------------------------
  free energy    TOTEN  =        -6.78851443 eV

  energy without entropy =       -6.78851443  energy(sigma->0) =       -6.78851443


--------------------------------------------------------------------------------------------------------




----------------------------------------- Iteration    2(   4)  ---------------------------------------


    POTLOK:  cpu time    1.33: real time    1.34
    SETDIJ:  cpu time    0.00: real time    0.00
    EDDIAG:  cpu time    0.06: real time    0.06
  RMM-DIIS:  cpu time    0.20: real time    0.20
    ORTHCH:  cpu time    0.00: real time    0.00
       DOS:  cpu time    0.00: real time    0.00
    CHARGE:  cpu time    0.12: real time    0.12
    MIXING:  cpu time    0.03: real time    0.03
    --------------------------------------------
      LOOP:  cpu time    1.74: real time    1.74

 eigenvalue-minimisations  :    10
 total energy-change (2. order) :-0.5862117E-05  (-0.8605062E-06)
 number of electron       2.0000019 magnetization 
 augmentation part        0.0413606 magnetization 

 Broyden mixing:
  rms(total) = 0.10472E-03    rms(broyden)= 0.10414E-03
  rms(prec ) = 0.13278E-03
  weight for this iteration     100.00

 eigenvalues of (default mixing * dielectric matrix)
  average eigenvalue GAMMA=   2.0317
  1.0985  2.2567  2.7399

 Free energy of the ion-electron system (eV)
  ---------------------------------------------------
  alpha Z        PSCENC =         0.00122237
  Ewald energy   TEWEN  =        14.95906852
  -1/2 Hartree   DENC   =       -31.32886417
  -exchange  EXHF       =         0.00000000
  -V(xc)+E(xc)   XCENC  =         5.32003862
  PAW double counting   =         8.31587518       -8.36397447
  entropy T*S    EENTRO =         0.00000000
  eigenvalues    EBANDS =       -20.73495351
  atomic energy  EATOM  =        25.04306716
  ---------------------------------------------------
  free energy    TOTEN  =        -6.78852030 eV

  energy without entropy =       -6.78852030  energy(sigma->0) =       -6.78852030


--------------------------------------------------------------------------------------------------------




----------------------------------------- Iteration    2(   5)  ---------------------------------------


    POTLOK:  cpu time    1.32: real time    1.33
    SETDIJ:  cpu time    0.00: real time    0.00
    EDDIAG:  cpu time    0.06: real time    0.06
  RMM-DIIS:  cpu time    0.18: real time    0.18
    ORTHCH:  cpu time    0.00: real time    0.00
       DOS:  cpu time    0.00: real time    0.00
    --------------------------------------------
      LOOP:  cpu time    1.56: real time    1.57

 eigenvalue-minimisations  :     9
 total energy-change (2. order) :-0.5519396E-06  (-0.3937330E-07)
 number of electron       2.0000019 magnetization 
 augmentation part        0.0413606 magnetization 

 Free energy of the ion-electron system (eV)
  ---------------------------------------------------
  alpha Z        PSCENC =         0.00122237
  Ewald energy   TEWEN  =        14.95906852
  -1/2 Hartree   DENC   =       -31.32914292
  -exchange  EXHF       =         0.00000000
  -V(xc)+E(xc)   XCENC  =         5.32014872
  PAW double counting   =         8.31604053       -8.36414399
  entropy T*S    EENTRO =         0.00000000
  eigenvalues    EBANDS =       -20.73478125
  atomic energy  EATOM  =        25.04306716
  ---------------------------------------------------
  free energy    TOTEN  =        -6.78852085 eV

  energy without entropy =       -6.78852085  energy(sigma->0) =       -6.78852085


--------------------------------------------------------------------------------------------------------




 average (electrostatic) potential at core
  the test charge radii are     0.5201
  (the norm of the test charge is              1.0000)
       1 -41.6062       2 -41.6052
 
 
 
 E-fermi :  -9.8836     XC(G=0):  -0.0366     alpha+bet : -0.0069


 k-point   1 :       0.0000    0.0000    0.0000
  band No.  band energies     occupation 
      1     -10.3674      2.00000
      2      -0.0169      0.00000
      3       0.1333      0.00000
      4       0.2953      0.00000
      5       0.3502      0.00000


--------------------------------------------------------------------------------------------------------


 soft charge-density along one line, spin component           1
         0         1         2         3         4         5         6         7         8         9
 total charge-density along one line
 
 pseudopotential strength for first ion, spin component:           1
 -2.360  -0.011   0.000  -0.002   0.000
 -0.011   0.050   0.000  -0.002   0.000
  0.000   0.000  -0.343   0.000   0.000
 -0.002  -0.002   0.000  -0.337   0.000
  0.000   0.000   0.000   0.000  -0.343
 total augmentation occupancy for first ion, spin component:           1
  1.642  -0.474   0.000   0.270   0.000
 -0.474   0.137   0.000  -0.078   0.000
  0.000   0.000   0.000   0.000   0.000
  0.270  -0.078   0.000   0.044   0.000
  0.000   0.000   0.000   0.000   0.000


------------------------ aborting loop because EDIFF is reached ----------------------------------------


    CHARGE:  cpu time    0.12: real time    0.12
    FORLOC:  cpu time    0.02: real time    0.02
    FORNL :  cpu time    0.08: real time    0.08
    FORHAR:  cpu time    0.33: real time    0.33
    MIXING:  cpu time    0.03: real time    0.03

 VOLUME and BASIS-vectors are now :
 -----------------------------------------------------------------------------
  energy-cutoff  :      400.00
  volume of cell :     8000.00
      direct lattice vectors                 reciprocal lattice vectors
    20.000000000  0.000000000  0.000000000     0.050000000  0.000000000  0.000000000
     0.000000000 20.000000000  0.000000000     0.000000000  0.050000000  0.000000000
     0.000000000  0.000000000 20.000000000     0.000000000  0.000000000  0.050000000

  length of vectors
    20.000000000 20.000000000 20.000000000     0.050000000  0.050000000  0.050000000


 FORCES acting on ions
    electron-ion (+dipol)            ewald-force                    non-local-force                 convergence-correction
 -----------------------------------------------------------------------------------------------
   -.468E-07 0.135E-06 0.204E+02   0.379E-10 0.189E-10 -.252E+02   -.165E-07 0.506E-07 0.501E+01   0.132E-07 -.518E-07 0.198E-03
   -.470E-07 0.135E-06 -.204E+02   -.379E-10 -.189E-10 0.252E+02   -.170E-07 0.518E-07 -.501E+01   0.132E-07 -.517E-07 -.198E-03
 -----------------------------------------------------------------------------------------------
   -.938E-07 0.270E-06 -.638E-03   -.269E-18 -.399E-18 0.000E+00   -.335E-07 0.102E-06 -.559E-03   0.264E-07 -.104E-06 0.147E-06
 
 
 POSITION                                       TOTAL-FORCE (eV/Angst)
 -----------------------------------------------------------------------------------
      0.00000      0.00000     -0.00809         0.000000      0.000000      0.223416
      0.00000      0.00000      0.74809         0.000000      0.000000     -0.223416
 -----------------------------------------------------------------------------------
    total drift:                                0.000000      0.000000     -0.001196


--------------------------------------------------------------------------------------------------------



  FREE ENERGIE OF THE ION-ELECTRON SYSTEM (eV)
  ---------------------------------------------------
  free  energy   TOTEN  =        -6.78852085 eV

  energy  without entropy=       -6.78852085  energy(sigma->0) =       -6.78852085
 
 d Force = 0.9080457E-03[-0.362E-02, 0.543E-02]  d Energy = 0.8124954E-03 0.956E-04
 d Force = 0.4166214E+00[ 0.408E+00, 0.426E+00]  d Ewald  = 0.4165238E+00 0.976E-04


--------------------------------------------------------------------------------------------------------


    POTLOK:  cpu time    1.33: real time    1.33


--------------------------------------------------------------------------------------------------------


 stress matrix after NEB project (eV)
      0.00000      0.00000      0.00000
      0.00000      0.00000      0.00000
      0.00000      0.00000      0.00000
  FORCES: max atom, RMS     0.223416    0.223416
  FORCE total and by dimension    0.315959    0.223416
  Stress total and by dimension    0.000000    0.000000
 Steepest descent step on ions:
 trial-energy change:   -0.000812  1 .order   -0.000908   -0.005433    0.003617
  (g-gl).g = 0.543E-02      g.g   = 0.543E-02  gl.gl    = 0.000E+00
 g(Force)  = 0.543E-02   g(Stress)= 0.000E+00 ortho     = 0.000E+00
 gamma     =   0.00000
 trial     =   1.00000
 opt step  =   0.58495  (harmonic =   0.60033) maximal distance =0.00473515
 next E    =    -6.789278   (d E  =  -0.00157)


--------------------------------------------------------------------------------------------------------


    WAVPRE:  cpu time    0.09: real time    0.09
 FEWALD executed in parallel
    FEWALD:  cpu time    0.00: real time    0.00

 real space projection operators:
  total allocation   :         74.88 KBytes
  max/ min on nodes  :         17.89          5.74

    ORTHCH:  cpu time    0.03: real time    0.03
     LOOP+:  cpu time   10.60: real time   10.74


----------------------------------------- Iteration    3(   1)  ---------------------------------------


    POTLOK:  cpu time    1.32: real time    1.32
    SETDIJ:  cpu time    0.00: real time    0.00
     EDDAV:  cpu time    0.23: real time    0.24
       DOS:  cpu time    0.00: real time    0.00
    CHARGE:  cpu time    0.12: real time    0.12
    MIXING:  cpu time    0.03: real time    0.03
    --------------------------------------------
      LOOP:  cpu time    1.69: real time    1.70

 eigenvalue-minimisations  :    10
 total energy-change (2. order) :-0.8156579E-03  (-0.1343414E-02)
 number of electron       2.0000020 magnetization 
 augmentation part        0.0417673 magnetization 

 Broyden mixing:
  rms(total) = 0.56472E-02    rms(broyden)= 0.56392E-02
  rms(prec ) = 0.59474E-02
  weight for this iteration     100.00

 Free energy of the ion-electron system (eV)
  ---------------------------------------------------
  alpha Z        PSCENC =         0.00122237
  Ewald energy   TEWEN  =        15.12975963
  -1/2 Hartree   DENC   =       -31.38453954
  -exchange  EXHF       =         0.00000000
  -V(xc)+E(xc)   XCENC  =         5.32701829
  PAW double counting   =         8.31603606       -8.36413897
  entropy T*S    EENTRO =         0.00000000
  eigenvalues    EBANDS =       -20.85776096
  atomic energy  EATOM  =        25.04306716
  ---------------------------------------------------
  free energy    TOTEN  =        -6.78933595 eV

  energy without entropy =       -6.78933595  energy(sigma->0) =       -6.78933595


--------------------------------------------------------------------------------------------------------




----------------------------------------- Iteration    3(   2)  ---------------------------------------


    POTLOK:  cpu time    1.31: real time    1.32
    SETDIJ:  cpu time    0.00: real time    0.00
    EDDIAG:  cpu time    0.06: real time    0.06
  RMM-DIIS:  cpu time    0.20: real time    0.20
    ORTHCH:  cpu time    0.00: real time    0.00
       DOS:  cpu time    0.00: real time    0.00
    CHARGE:  cpu time    0.12: real time    0.12
    MIXING:  cpu time    0.03: real time    0.03
    --------------------------------------------
      LOOP:  cpu time    1.72: real time    1.72

 eigenvalue-minimisations  :    10
 total energy-change (2. order) : 0.4387306E-04  (-0.5440954E-05)
 number of electron       2.0000020 magnetization 
 augmentation part        0.0417498 magnetization 

 Broyden mixing:
  rms(total) = 0.31190E-02    rms(broyden)= 0.31185E-02
  rms(prec ) = 0.32841E-02
  weight for this iteration     100.00

 eigenvalues of (default mixing * dielectric matrix)
  average eigenvalue GAMMA=   2.2243
  2.2243

 Free energy of the ion-electron system (eV)
  ---------------------------------------------------
  alpha Z        PSCENC =         0.00122237
  Ewald energy   TEWEN  =        15.12975963
  -1/2 Hartree   DENC   =       -31.41382736
  -exchange  EXHF       =         0.00000000
  -V(xc)+E(xc)   XCENC  =         5.33115346
  PAW double counting   =         8.40155728       -8.45005827
  entropy T*S    EENTRO =         0.00000000
  eigenvalues    EBANDS =       -20.83216635
  atomic energy  EATOM  =        25.04306716
  ---------------------------------------------------
  free energy    TOTEN  =        -6.78929208 eV

  energy without entropy =       -6.78929208  energy(sigma->0) =       -6.78929208


--------------------------------------------------------------------------------------------------------




----------------------------------------- Iteration    3(   3)  ---------------------------------------


    POTLOK:  cpu time    1.30: real time    1.31
    SETDIJ:  cpu time    0.00: real time    0.00
    EDDIAG:  cpu time    0.06: real time    0.06
  RMM-DIIS:  cpu time    0.20: real time    0.20
    ORTHCH:  cpu time    0.00: real time    0.00
       DOS:  cpu time    0.00: real time    0.00
    CHARGE:  cpu time    0.12: real time    0.12
    MIXING:  cpu time    0.03: real time    0.03
    --------------------------------------------
      LOOP:  cpu time    1.71: real time    1.72

 eigenvalue-minimisations  :    10
 total energy-change (2. order) : 0.1546732E-04  (-0.5758980E-05)
 number of electron       2.0000020 magnetization 
 augmentation part        0.0417197 magnetization 

 Broyden mixing:
  rms(total) = 0.21269E-03    rms(broyden)= 0.21205E-03
  rms(prec ) = 0.22799E-03
  weight for this iteration     100.00

 eigenvalues of (default mixing * dielectric matrix)
  average eigenvalue GAMMA=   1.7443
  1.4263  2.0623

 Free energy of the ion-electron system (eV)
  ---------------------------------------------------
  alpha Z        PSCENC =         0.00122237
  Ewald energy   TEWEN  =        15.12975963
  -1/2 Hartree   DENC   =       -31.44955330
  -exchange  EXHF       =         0.00000000
  -V(xc)+E(xc)   XCENC  =         5.33624544
  PAW double counting   =         8.50952636       -8.55852232
  entropy T*S    EENTRO =         0.00000000
  eigenvalues    EBANDS =       -20.80102195
  atomic energy  EATOM  =        25.04306716
  ---------------------------------------------------
  free energy    TOTEN  =        -6.78927661 eV

  energy without entropy =       -6.78927661  energy(sigma->0) =       -6.78927661


--------------------------------------------------------------------------------------------------------




----------------------------------------- Iteration    3(   4)  ---------------------------------------


    POTLOK:  cpu time    1.30: real time    1.31
    SETDIJ:  cpu time    0.00: real time    0.00
    EDDIAG:  cpu time    0.06: real time    0.06
  RMM-DIIS:  cpu time    0.18: real time    0.18
    ORTHCH:  cpu time    0.00: real time    0.00
       DOS:  cpu time    0.00: real time    0.00
    CHARGE:  cpu time    0.12: real time    0.12
    MIXING:  cpu time    0.03: real time    0.03
    --------------------------------------------
      LOOP:  cpu time    1.69: real time    1.69

 eigenvalue-minimisations  :     9
 total energy-change (2. order) :-0.1464104E-05  (-0.7312404E-07)
 number of electron       2.0000020 magnetization 
 augmentation part        0.0417195 magnetization 

 Broyden mixing:
  rms(total) = 0.10449E-03    rms(broyden)= 0.10443E-03
  rms(prec ) = 0.11372E-03
  weight for this iteration     100.00

 eigenvalues of (default mixing * dielectric matrix)
  average eigenvalue GAMMA=   2.0085
  0.9862  2.3283  2.7110

 Free energy of the ion-electron system (eV)
  ---------------------------------------------------
  alpha Z        PSCENC =         0.00122237
  Ewald energy   TEWEN  =        15.12975963
  -1/2 Hartree   DENC   =       -31.44804228
  -exchange  EXHF       =         0.00000000
  -V(xc)+E(xc)   XCENC  =         5.33600036
  PAW double counting   =         8.50783064       -8.55681370
  entropy T*S    EENTRO =         0.00000000
  eigenvalues    EBANDS =       -20.80230227
  atomic energy  EATOM  =        25.04306716
  ---------------------------------------------------
  free energy    TOTEN  =        -6.78927808 eV

  energy without entropy =       -6.78927808  energy(sigma->0) =       -6.78927808


--------------------------------------------------------------------------------------------------------




----------------------------------------- Iteration    3(   5)  ---------------------------------------


    POTLOK:  cpu time    1.30: real time    1.31
    SETDIJ:  cpu time    0.00: real time    0.00
    EDDIAG:  cpu time    0.06: real time    0.06
  RMM-DIIS:  cpu time    0.18: real time    0.18
    ORTHCH:  cpu time    0.00: real time    0.00
       DOS:  cpu time    0.00: real time    0.00
    CHARGE:  cpu time    0.12: real time    0.12
    MIXING:  cpu time    0.03: real time    0.03
    --------------------------------------------
      LOOP:  cpu time    1.69: real time    1.70

 eigenvalue-minimisations  :     9
 total energy-change (2. order) :-0.1132632E-05  (-0.4561175E-07)
 number of electron       2.0000020 magnetization 
 augmentation part        0.0417198 magnetization 

 Broyden mixing:
  rms(total) = 0.43951E-04    rms(broyden)= 0.43946E-04
  rms(prec ) = 0.49449E-04
  weight for this iteration     100.00

 eigenvalues of (default mixing * dielectric matrix)
  average eigenvalue GAMMA=   1.7369
  2.7064  2.1162  1.0624  1.0624

 Free energy of the ion-electron system (eV)
  ---------------------------------------------------
  alpha Z        PSCENC =         0.00122237
  Ewald energy   TEWEN  =        15.12975963
  -1/2 Hartree   DENC   =       -31.44790158
  -exchange  EXHF       =         0.00000000
  -V(xc)+E(xc)   XCENC  =         5.33592890
  PAW double counting   =         8.51076884       -8.55975975
  entropy T*S    EENTRO =         0.00000000
  eigenvalues    EBANDS =       -20.80236478
  atomic energy  EATOM  =        25.04306716
  ---------------------------------------------------
  free energy    TOTEN  =        -6.78927921 eV

  energy without entropy =       -6.78927921  energy(sigma->0) =       -6.78927921


--------------------------------------------------------------------------------------------------------




----------------------------------------- Iteration    3(   6)  ---------------------------------------


    POTLOK:  cpu time    1.30: real time    1.31
    SETDIJ:  cpu time    0.00: real time    0.00
    EDDIAG:  cpu time    0.06: real time    0.06
  RMM-DIIS:  cpu time    0.18: real time    0.18
    ORTHCH:  cpu time    0.00: real time    0.00
       DOS:  cpu time    0.00: real time    0.00
    --------------------------------------------
      LOOP:  cpu time    1.54: real time    1.56

 eigenvalue-minimisations  :     9
 total energy-change (2. order) :-0.1333725E-06  (-0.2490737E-08)
 number of electron       2.0000020 magnetization 
 augmentation part        0.0417198 magnetization 

 Free energy of the ion-electron system (eV)
  ---------------------------------------------------
  alpha Z        PSCENC =         0.00122237
  Ewald energy   TEWEN  =        15.12975963
  -1/2 Hartree   DENC   =       -31.44852294
  -exchange  EXHF       =         0.00000000
  -V(xc)+E(xc)   XCENC  =         5.33601307
  PAW double counting   =         8.51178512       -8.56078126
  entropy T*S    EENTRO =         0.00000000
  eigenvalues    EBANDS =       -20.80182249
  atomic energy  EATOM  =        25.04306716
  ---------------------------------------------------
  free energy    TOTEN  =        -6.78927934 eV

  energy without entropy =       -6.78927934  energy(sigma->0) =       -6.78927934


--------------------------------------------------------------------------------------------------------




 average (electrostatic) potential at core
  the test charge radii are     0.5201
  (the norm of the test charge is              1.0000)
       1 -41.6482       2 -41.6471
 
 
 
 E-fermi :  -9.9133     XC(G=0):  -0.0372     alpha+bet : -0.0069


 k-point   1 :       0.0000    0.0000    0.0000
  band No.  band energies     occupation 
      1     -10.4009      2.00000
      2      -0.0171      0.00000
      3       0.1538      0.00000
      4       0.2963      0.00000
      5       0.3497      0.00000


--------------------------------------------------------------------------------------------------------


 soft charge-density along one line, spin component           1
         0         1         2         3         4         5         6         7         8         9
 total charge-density along one line
 
 pseudopotential strength for first ion, spin component:           1
 -2.360  -0.011   0.000  -0.002   0.000
 -0.011   0.050   0.000  -0.002   0.000
  0.000   0.000  -0.343   0.000   0.000
 -0.002  -0.002   0.000  -0.336   0.000
  0.000   0.000   0.000   0.000  -0.343
 total augmentation occupancy for first ion, spin component:           1
  1.655  -0.475   0.000   0.276   0.000
 -0.475   0.136   0.000  -0.079   0.000
  0.000   0.000   0.000   0.000   0.000
  0.276  -0.079   0.000   0.046   0.000
  0.000   0.000   0.000   0.000   0.000


------------------------ aborting loop because EDIFF is reached ----------------------------------------


    CHARGE:  cpu time    0.12: real time    0.12
    FORLOC:  cpu time    0.02: real time    0.02
    FORNL :  cpu time    0.08: real time    0.08
    FORHAR:  cpu time    0.33: real time    0.33
    MIXING:  cpu time    0.03: real time    0.03

 VOLUME and BASIS-vectors are now :
 -----------------------------------------------------------------------------
  energy-cutoff  :      400.00
  volume of cell :     8000.00
      direct lattice vectors                 reciprocal lattice vectors
    20.000000000  0.000000000  0.000000000     0.050000000  0.000000000  0.000000000
     0.000000000 20.000000000  0.000000000     0.000000000  0.050000000  0.000000000
     0.000000000  0.000000000 20.000000000     0.000000000  0.000000000  0.050000000

  length of vectors
    20.000000000 20.000000000 20.000000000     0.050000000  0.050000000  0.050000000


 FORCES acting on ions
    electron-ion (+dipol)            ewald-force                    non-local-force                 convergence-correction
 -----------------------------------------------------------------------------------------------
   -.113E-07 0.249E-07 0.205E+02   0.194E-10 0.462E-15 -.256E+02   -.435E-08 0.952E-08 0.511E+01   0.427E-08 -.145E-07 -.841E-04
   -.112E-07 0.248E-07 -.205E+02   -.194E-10 -.462E-15 0.256E+02   -.425E-08 0.945E-08 -.511E+01   0.431E-08 -.146E-07 0.834E-04
 -----------------------------------------------------------------------------------------------
   -.224E-07 0.496E-07 -.599E-03   -.269E-18 -.399E-18 0.000E+00   -.860E-08 0.190E-07 -.929E-03   0.859E-08 -.291E-07 -.706E-06
 
 
 POSITION                                       TOTAL-FORCE (eV/Angst)
 -----------------------------------------------------------------------------------
      0.00000      0.00000     -0.00474         0.000000      0.000000     -0.001415
      0.00000      0.00000      0.74474         0.000000      0.000000      0.001415
 -----------------------------------------------------------------------------------
    total drift:                                0.000000      0.000000     -0.001529


--------------------------------------------------------------------------------------------------------



  FREE ENERGIE OF THE ION-ELECTRON SYSTEM (eV)
  ---------------------------------------------------
  free  energy   TOTEN  =        -6.78927934 eV

  energy  without entropy=       -6.78927934  energy(sigma->0) =       -6.78927934
 
 d Force = 0.7458705E-03[-0.951E-05, 0.150E-02]  d Energy = 0.7584957E-03-0.126E-04
 d Force =-0.1706980E+00[-0.172E+00,-0.169E+00]  d Ewald  =-0.1706911E+00-0.689E-05


--------------------------------------------------------------------------------------------------------


    POTLOK:  cpu time    1.32: real time    1.33


--------------------------------------------------------------------------------------------------------


 stress matrix after NEB project (eV)
      0.00000      0.00000      0.00000
      0.00000      0.00000      0.00000
      0.00000      0.00000      0.00000
  FORCES: max atom, RMS     0.001415    0.001415
  FORCE total and by dimension    0.002001    0.001415
  Stress total and by dimension    0.000000    0.000000


--------------------------------------------------------------------------------------------------------


  
 reached required accuracy - stopping structural energy minimisation
     LOOP+:  cpu time   11.93: real time   12.01
    4ORBIT:  cpu time    0.00: real time    0.00

 total amount of memory used by VASP on root node   117265. kBytes
========================================================================

   base      :      30000. kBytes
   nonlr-proj:         21. kBytes
   fftplans  :      35092. kBytes
   grid      :      51427. kBytes
   one-center:          0. kBytes
   wavefun   :        725. kBytes
 
  
  
 General timing and accounting informations for this job:
 ========================================================
  
                  Total CPU time used (sec):       54.808
                            User time (sec):       53.998
                          System time (sec):        0.810
                         Elapsed time (sec):       55.225
  
                   Maximum memory used (kb):      192264.
                   Average memory used (kb):           0.
  
                          Minor page faults:       188134
                          Major page faults:            0
                 Voluntary context switches:          106
