unknown system                          
           1
    20.000000    0.000000    0.000000
     0.000000   20.000000    0.000000
     0.000000    0.000000   20.000000
   H 
   2
Direct configuration=     1
   0.00000000  0.00000000  0.00000000
   0.00000000  0.00000000  0.03700000
Direct configuration=     2
   0.00000000  0.00000000 -0.00040475
   0.00000000  0.00000000  0.03740475
Direct configuration=     3
   0.00000000  0.00000000 -0.00023676
   0.00000000  0.00000000  0.03723676
