       N       E                     dE             d eps       ncg     rms          rms(c)
DAV:   1     0.961558313012E+02    0.96156E+02   -0.38202E+03    48   0.449E+02
DAV:   2    -0.161950667237E+02   -0.11235E+03   -0.11162E+03    64   0.105E+02
DAV:   3    -0.581988036588E+02   -0.42004E+02   -0.41965E+02    32   0.651E+01
DAV:   4    -0.639322681001E+02   -0.57335E+01   -0.57330E+01    32   0.295E+01
DAV:   5    -0.641384234696E+02   -0.20616E+00   -0.20555E+00    48   0.604E+00
DAV:   6    -0.641405570264E+02   -0.21336E-02   -0.21332E-02    48   0.614E-01
DAV:   7    -0.641406400883E+02   -0.83062E-04   -0.83056E-04    48   0.129E-01
DAV:   8    -0.641406440226E+02   -0.39342E-05   -0.39340E-05    48   0.278E-02
DAV:   9    -0.641400644302E+02    0.57959E-03   -0.19873E-06    48   0.678E-03
DAV:  10    -0.641400644398E+02   -0.95649E-08   -0.86537E-08    40   0.161E-03    0.126E+01
RMM:  11    -0.585159350992E+02    0.56241E+01   -0.10533E+01    32   0.151E+01    0.662E+00
RMM:  12    -0.572884681693E+02    0.12275E+01   -0.40936E+00    32   0.907E+00    0.313E+00
RMM:  13    -0.570268714513E+02    0.26160E+00   -0.36758E-01    32   0.327E+00    0.354E-01
RMM:  14    -0.570095098938E+02    0.17362E-01   -0.38389E-02    32   0.936E-01    0.261E-01
RMM:  15    -0.570015290957E+02    0.79808E-02   -0.27305E-02    32   0.713E-01    0.201E-01
RMM:  16    -0.570027325909E+02   -0.12035E-02   -0.86394E-03    32   0.465E-01    0.133E-01
RMM:  17    -0.570059407278E+02   -0.32081E-02   -0.27895E-03    32   0.222E-01    0.613E-02
RMM:  18    -0.570120405949E+02   -0.60999E-02   -0.46664E-03    32   0.290E-01    0.758E-02
RMM:  19    -0.570171833707E+02   -0.51428E-02   -0.14496E-03    32   0.182E-01    0.277E-02
RMM:  20    -0.570201485000E+02   -0.29651E-02   -0.17073E-03    32   0.190E-01    0.480E-02
RMM:  21    -0.570211137788E+02   -0.96528E-03   -0.27276E-04    32   0.743E-02    0.132E-02
RMM:  22    -0.570214718168E+02   -0.35804E-03   -0.25160E-04    32   0.695E-02    0.173E-02
RMM:  23    -0.570220735938E+02   -0.60178E-03   -0.14928E-05    32   0.188E-02    0.103E-02
RMM:  24    -0.570216903529E+02    0.38324E-03   -0.30408E-05    32   0.254E-02    0.246E-03
RMM:  25    -0.570217170945E+02   -0.26742E-04   -0.14716E-06    22   0.737E-03    0.309E-03
RMM:  26    -0.570217551152E+02   -0.38021E-04   -0.10171E-06    22   0.550E-03    0.105E-03
RMM:  27    -0.570217612891E+02   -0.61739E-05   -0.18634E-07    22   0.265E-03    0.802E-04
RMM:  28    -0.570217672148E+02   -0.59257E-05   -0.26978E-07    22   0.271E-03    0.280E-04
RMM:  29    -0.570217681155E+02   -0.90078E-06   -0.16178E-07    21   0.234E-03
   1 F= -.57087093E+02 E0= -.57087287E+02  d E =-.570871E+02
