<?xml version="1.0" encoding="ISO-8859-1"?>
<modeling>
 <generator>
  <i name="program" type="string">vasp </i>
  <i name="version" type="string">5.3.2  </i>
  <i name="subversion" type="string">13Sep12 (build Oct  1 2014 13:46:58) complex                          parallel </i>
  <i name="platform" type="string">LinuxIFC </i>
  <i name="date" type="string">2015 11 22 </i>
  <i name="time" type="string">18:50:13 </i>
 </generator>
 <incar>
  <i type="int" name="ISTART">     0</i>
  <i type="string" name="PREC">med</i>
  <i type="string" name="ALGO"> Fast</i>
  <i type="int" name="ISPIN">     1</i>
  <i type="int" name="NELM">   400</i>
  <i type="int" name="NELMDL">   -10</i>
  <i type="int" name="IBRION">     1</i>
  <i type="int" name="NFREE">     2</i>
  <i name="EDIFF">      0.00000100</i>
  <i name="EDIFFG">     -0.01000000</i>
  <i type="int" name="NSW">   200</i>
  <i type="int" name="ISIF">     2</i>
  <i type="int" name="ISYM">     0</i>
  <i name="ENCUT">    400.00000000</i>
  <i name="POTIM">      0.50000000</i>
  <i type="string" name="LREAL"> auto</i>
  <v name="ROPT">     -0.00020000     -0.00020000</v>
  <i type="logical" name="LPLANE"> T  </i>
  <i type="int" name="ISMEAR">     1</i>
  <i name="SIGMA">      0.01000000</i>
  <i type="int" name="NWRITE">     1</i>
  <i type="logical" name="LWAVE"> F  </i>
  <i type="logical" name="LCHARG"> F  </i>
  <i type="logical" name="LVTOT"> F  </i>
  <i type="int" name="NELM">   400</i>
  <i type="int" name="VOSKOWN">     1</i>
 </incar>
 <kpoints>
  <generation param="Monkhorst-Pack">
   <v type="int" name="divisions">       1        1        1 </v>
   <v name="usershift">      0.00000000       0.00000000       0.00000000 </v>
   <v name="genvec1">      1.00000000       0.00000000       0.00000000 </v>
   <v name="genvec2">      0.00000000       1.00000000       0.00000000 </v>
   <v name="genvec3">      0.00000000       0.00000000       1.00000000 </v>
   <v name="shift">      0.00000000       0.00000000       0.00000000 </v>
  </generation>
  <varray name="kpointlist" >
   <v>       0.00000000       0.00000000       0.00000000 </v>
  </varray>
  <varray name="weights" >
   <v>       1.00000000 </v>
  </varray>
 </kpoints>
 <parameters>
  <separator name="general" >
   <i type="string" name="SYSTEM">unknown system</i>
   <i type="logical" name="LCOMPAT"> F  </i>
  </separator>
  <separator name="electronic" >
   <i type="string" name="PREC">med</i>
   <i name="ENMAX">    400.00000000</i>
   <i name="ENAUG">    644.87300000</i>
   <i name="EDIFF">      0.00000100</i>
   <i type="int" name="IALGO">    68</i>
   <i type="int" name="IWAVPR">    11</i>
   <i type="int" name="NBANDS">    16</i>
   <i name="NELECT">     20.00000000</i>
   <i type="int" name="TURBO">     0</i>
   <i type="int" name="IRESTART">     0</i>
   <i type="int" name="NREBOOT">     0</i>
   <i type="int" name="NMIN">     0</i>
   <i name="EREF">      0.00000000</i>
   <separator name="electronic smearing" >
    <i type="int" name="ISMEAR">     1</i>
    <i name="SIGMA">      0.01000000</i>
    <i name="KSPACING">      0.50000000</i>
    <i type="logical" name="KGAMMA"> T  </i>
   </separator>
   <separator name="electronic projectors" >
    <i type="logical" name="LREAL"> T  </i>
    <v name="ROPT">     -0.00020000     -0.00020000</v>
    <i type="int" name="LMAXPAW">  -100</i>
    <i type="int" name="LMAXMIX">     2</i>
    <i type="logical" name="NLSPLINE"> F  </i>
   </separator>
   <separator name="electronic startup" >
    <i type="int" name="ISTART">     0</i>
    <i type="int" name="ICHARG">     2</i>
    <i type="int" name="INIWAV">     1</i>
   </separator>
   <separator name="electronic spin" >
    <i type="int" name="ISPIN">     1</i>
    <i type="logical" name="LNONCOLLINEAR"> F  </i>
    <v name="MAGMOM">      1.00000000      1.00000000      1.00000000      1.00000000      1.00000000      1.00000000      1.00000000      1.00000000      1.00000000      1.00000000      1.00000000</v>
    <i name="NUPDOWN">     -1.00000000</i>
    <i type="logical" name="LSORBIT"> F  </i>
    <v name="SAXIS">      0.00000000      0.00000000      1.00000000</v>
    <i type="logical" name="LSPIRAL"> F  </i>
    <v name="QSPIRAL">      0.00000000      0.00000000      0.00000000</v>
    <i type="logical" name="LZEROZ"> F  </i>
   </separator>
   <separator name="electronic exchange-correlation" >
    <i type="logical" name="LASPH"> F  </i>
    <i type="logical" name="LMETAGGA"> F  </i>
   </separator>
   <separator name="electronic convergence" >
    <i type="int" name="NELM">   400</i>
    <i type="int" name="NELMDL">   -10</i>
    <i type="int" name="NELMIN">     2</i>
    <i name="ENINI">    400.00000000</i>
    <separator name="electronic convergence detail" >
     <i type="logical" name="LDIAG"> T  </i>
     <i type="logical" name="LSUBROT"> T  </i>
     <i name="WEIMIN">      0.00100000</i>
     <i name="EBREAK">      0.00000002</i>
     <i name="DEPER">      0.30000000</i>
     <i type="int" name="NRMM">     4</i>
     <i name="TIME">      0.40000000</i>
    </separator>
   </separator>
   <separator name="electronic mixer" >
    <i name="AMIX">      0.40000000</i>
    <i name="BMIX">      1.00000000</i>
    <i name="AMIN">      0.10000000</i>
    <i name="AMIX_MAG">      1.60000000</i>
    <i name="BMIX_MAG">      1.00000000</i>
    <separator name="electronic mixer details" >
     <i type="int" name="IMIX">     4</i>
     <i type="int" name="MAXMIX">   -45</i>
     <i name="WC">    100.00000000</i>
     <i type="int" name="INIMIX">     1</i>
     <i type="int" name="MIXPRE">     1</i>
     <i type="int" name="MREMOVE">     5</i>
    </separator>
   </separator>
   <separator name="electronic dipolcorrection" >
    <i type="logical" name="LDIPOL"> F  </i>
    <i type="logical" name="LMONO"> F  </i>
    <i type="int" name="IDIPOL">     0</i>
    <i name="EPSILON">      1.00000000</i>
    <v name="DIPOL">   -100.00000000   -100.00000000   -100.00000000</v>
    <i name="EFIELD">      0.00000000</i>
   </separator>
  </separator>
  <separator name="grids" >
   <i type="int" name="NGX">    98</i>
   <i type="int" name="NGY">    98</i>
   <i type="int" name="NGZ">    98</i>
   <i type="int" name="NGXF">   168</i>
   <i type="int" name="NGYF">   168</i>
   <i type="int" name="NGZF">   168</i>
   <i type="logical" name="ADDGRID"> F  </i>
  </separator>
  <separator name="ionic" >
   <i type="int" name="NSW">   200</i>
   <i type="int" name="IBRION">     1</i>
   <i type="int" name="ISIF">     2</i>
   <i name="PSTRESS">      0.00000000</i>
   <i name="EDIFFG">     -0.01000000</i>
   <i type="int" name="NFREE">     2</i>
   <i name="POTIM">      0.50000000</i>
   <i name="SMASS">     -3.00000000</i>
   <i name="SCALEE">      1.00000000</i>
  </separator>
  <separator name="ionic md" >
   <i name="TEBEG">      0.00010000</i>
   <i name="TEEND">      0.00010000</i>
   <i type="int" name="NBLOCK">     1</i>
   <i type="int" name="KBLOCK">   200</i>
   <i type="int" name="NPACO">   256</i>
   <i name="APACO">     16.00000000</i>
  </separator>
  <separator name="symmetry" >
   <i type="int" name="ISYM">     0</i>
   <i name="SYMPREC">      0.00001000</i>
  </separator>
  <separator name="dos" >
   <i type="logical" name="LORBIT"> F  </i>
   <v name="RWIGS">     -1.00000000     -1.00000000</v>
   <i type="int" name="NEDOS">   301</i>
   <i name="EMIN">     10.00000000</i>
   <i name="EMAX">    -10.00000000</i>
   <i name="EFERMI">      0.00000000</i>
  </separator>
  <separator name="writing" >
   <i type="int" name="NWRITE">     1</i>
   <i type="logical" name="LWAVE"> F  </i>
   <i type="logical" name="LCHARG"> F  </i>
   <i type="logical" name="LPARD"> F  </i>
   <i type="logical" name="LVTOT"> F  </i>
   <i type="logical" name="LVHAR"> F  </i>
   <i type="logical" name="LELF"> F  </i>
   <i type="logical" name="LOPTICS"> F  </i>
   <v name="STM">      0.00000000      0.00000000      0.00000000      0.00000000      0.00000000      0.00000000      0.00000000</v>
  </separator>
  <separator name="performance" >
   <i type="int" name="NPAR">     1</i>
   <i type="int" name="NSIM">     4</i>
   <i type="int" name="NBLK">    -1</i>
   <i type="logical" name="LPLANE"> T  </i>
   <i type="logical" name="LSCALAPACK"> F  </i>
   <i type="logical" name="LSCAAWARE"> F  </i>
   <i type="logical" name="LSCALU"> F  </i>
   <i type="logical" name="LASYNC"> F  </i>
   <i type="logical" name="LORBITALREAL"> F  </i>
  </separator>
  <separator name="miscellaneous" >
   <i type="int" name="IDIOT">     3</i>
   <i type="logical" name="LMUSIC"> F  </i>
   <v name="POMASS">     12.01100000      1.00000000</v>
   <v name="DARWINR">      0.00000000      0.00000000</v>
   <v name="DARWINV">      1.00000000      1.00000000</v>
   <i type="logical" name="LCORR"> T  </i>
  </separator>
  <i type="logical" name="GGA_COMPAT"> T  </i>
  <i type="logical" name="LBERRY"> F  </i>
  <i type="int" name="ICORELEVEL">     0</i>
  <i type="logical" name="LDAU"> F  </i>
  <i type="int" name="I_CONSTRAINED_M">     0</i>
  <separator name="electronic exchange-correlation" >
   <i type="string" name="GGA">--</i>
   <i type="int" name="VOSKOWN">     1</i>
   <i type="logical" name="LHFCALC"> F  </i>
   <i type="string" name="PRECFOCK"></i>
   <i type="logical" name="LSYMGRAD"> F  </i>
   <i type="logical" name="LHFONE"> F  </i>
   <i type="logical" name="LRHFCALC"> F  </i>
   <i type="logical" name="LTHOMAS"> F  </i>
   <i type="logical" name="LMODELHF"> F  </i>
   <i name="ENCUT4O">     -1.00000000</i>
   <i type="int" name="EXXOEP">     0</i>
   <i type="int" name="FOURORBIT">     0</i>
   <i name="AEXX">      0.00000000</i>
   <i name="HFALPHA">      0.00000000</i>
   <i name="MCALPHA">      0.00000000</i>
   <i name="ALDAX">      1.00000000</i>
   <i name="AGGAX">      1.00000000</i>
   <i name="ALDAC">      1.00000000</i>
   <i name="AGGAC">      1.00000000</i>
   <i type="int" name="NKREDX">     1</i>
   <i type="int" name="NKREDY">     1</i>
   <i type="int" name="NKREDZ">     1</i>
   <i type="logical" name="SHIFTRED"> F  </i>
   <i type="logical" name="ODDONLY"> F  </i>
   <i type="logical" name="EVENONLY"> F  </i>
   <i type="int" name="LMAXFOCK">     0</i>
   <i type="int" name="NMAXFOCKAE">     0</i>
   <i type="logical" name="LFOCKAEDFT"> F  </i>
   <i name="HFSCREEN">      0.00000000</i>
   <i name="HFSCREENC">      0.00000000</i>
   <i type="int" name="NBANDSGWLOW">     0</i>
  </separator>
  <separator name="vdW DFT" >
   <i type="logical" name="LUSE_VDW"> F  </i>
   <i name="Zab_VDW">     -0.84910000</i>
   <i name="PARAM1">      0.12340000</i>
   <i name="PARAM2">      1.00000000</i>
   <i name="PARAM3">      0.00000000</i>
  </separator>
  <separator name="model GW" >
   <i type="int" name="MODEL_GW">     0</i>
   <i name="MODEL_EPS0">    436.36363636</i>
   <i name="MODEL_ALPHA">      1.00000000</i>
  </separator>
  <separator name="linear response parameters" >
   <i type="logical" name="LEPSILON"> F  </i>
   <i type="logical" name="LRPA"> F  </i>
   <i type="logical" name="LNABLA"> F  </i>
   <i type="logical" name="LVEL"> F  </i>
   <i type="int" name="KINTER">     0</i>
   <i name="CSHIFT">      0.10000000</i>
   <i name="OMEGAMAX">     -1.00000000</i>
   <i name="DEG_THRESHOLD">      0.00200000</i>
  </separator>
  <separator name="orbital magnetization" >
   <i type="logical" name="NUCIND"> F  </i>
   <v name="MAGPOS">      0.00000000      0.00000000      0.00000000</v>
   <i type="logical" name="LNICSALL"> T  </i>
   <i type="logical" name="ORBITALMAG"> F  </i>
   <i type="logical" name="LMAGBLOCH"> F  </i>
   <i type="logical" name="LCHIMAG"> F  </i>
   <i type="logical" name="LGAUGE"> T  </i>
   <i type="int" name="MAGATOM">     0</i>
   <v name="MAGDIPOL">      0.00000000      0.00000000      0.00000000</v>
   <v name="AVECCONST">      0.00000000      0.00000000      0.00000000</v>
  </separator>
  <separator name="response functions" >
   <i type="logical" name="LADDER"> F  </i>
   <i type="logical" name="LHARTREE"> T  </i>
   <i type="int" name="IBSE">     0</i>
   <i type="logical" name="LTCTE"> F  </i>
   <i type="logical" name="LTETE"> F  </i>
   <i type="logical" name="LTRIPLET"> F  </i>
   <i type="logical" name="LFXCEPS"> F  </i>
   <i type="logical" name="L2ORDER"> F  </i>
   <i type="logical" name="LUSEW"> F  </i>
   <i name="ENCUTGW">     -2.00000000</i>
   <i name="ENCUTGWSOFT">     -2.00000000</i>
   <i name="ENCUTLF">     -1.00000000</i>
   <i type="int" name="LMAXMP2">    -1</i>
   <i name="SCISSOR">      0.00000000</i>
   <i type="int" name="NOMEGA">     0</i>
   <i type="int" name="NOMEGAR">     0</i>
   <i type="int" name="NBANDSGW">    -1</i>
   <i type="int" name="NBANDSO">    -1</i>
   <i type="int" name="NBANDSV">    -1</i>
   <i type="int" name="NELM">   400</i>
   <i type="int" name="DIM">     3</i>
   <i type="int" name="ANTIRES">     0</i>
   <i name="OMEGAMAX">    -30.00000000</i>
   <i name="OMEGATL">   -200.00000000</i>
   <i type="int" name="OMEGAGRID">     0</i>
   <i name="CSHIFT">     -0.10000000</i>
   <i type="logical" name="SELFENERGY"> F  </i>
   <i type="logical" name="LSPECTRAL"> F  </i>
   <i type="logical" name="ODDONLYGW"> F  </i>
   <i type="logical" name="EVENONLYGW"> F  </i>
   <i type="int" name="NKREDLFX">     1</i>
   <i type="int" name="NKREDLFY">     1</i>
   <i type="int" name="NKREDLFZ">     1</i>
   <i type="int" name="MAXMEM">  1800</i>
   <i type="int" name="TELESCOPE">     0</i>
  </separator>
 </parameters>
 <atominfo>
  <atoms>      11 </atoms>
  <types>       2 </types>
  <array name="atoms" >
   <dimension dim="1">ion</dimension>
   <field type="string">element</field>
   <field type="int">atomtype</field>
   <set>
    <rc><c>C </c><c>   1</c></rc>
    <rc><c>C </c><c>   1</c></rc>
    <rc><c>C </c><c>   1</c></rc>
    <rc><c>H </c><c>   2</c></rc>
    <rc><c>H </c><c>   2</c></rc>
    <rc><c>H </c><c>   2</c></rc>
    <rc><c>H </c><c>   2</c></rc>
    <rc><c>H </c><c>   2</c></rc>
    <rc><c>H </c><c>   2</c></rc>
    <rc><c>H </c><c>   2</c></rc>
    <rc><c>H </c><c>   2</c></rc>
   </set>
  </array>
  <array name="atomtypes" >
   <dimension dim="1">type</dimension>
   <field type="int">atomspertype</field>
   <field type="string">element</field>
   <field>mass</field>
   <field>valence</field>
   <field type="string">pseudopotential</field>
   <set>
    <rc><c>   3</c><c>C </c><c>     12.01100000</c><c>      4.00000000</c><c>  PAW_PBE C 08Apr2002                   </c></rc>
    <rc><c>   8</c><c>H </c><c>      1.00000000</c><c>      1.00000000</c><c>  PAW_PBE H 15Jun2001                   </c></rc>
   </set>
  </array>
 </atominfo>
 <structure name="initialpos" >
  <crystal>
   <varray name="basis" >
    <v>      16.32993162      -8.16496581      -8.16496581 </v>
    <v>       0.00000000      14.14213562     -14.14213562 </v>
    <v>      11.54700538      11.54700538      11.54700538 </v>
   </varray>
   <i name="volume">   8000.00000000 </i>
   <varray name="rec_basis" >
    <v>       0.04082483      -0.02041241      -0.02041241 </v>
    <v>       0.00000000       0.03535534      -0.03535534 </v>
    <v>       0.02886751       0.02886751       0.02886751 </v>
   </varray>
  </crystal>
  <varray name="positions" >
   <v>       0.41782252       0.53648465       0.62939885 </v>
   <v>       0.38591632       0.46999442       0.64947300 </v>
   <v>       0.46025902       0.56699175       0.68517015 </v>
   <v>       0.44896666       0.52917061       0.58444666 </v>
   <v>       0.35472887       0.44930041       0.60915076 </v>
   <v>       0.35390429       0.47612522       0.69389334 </v>
   <v>       0.42426330       0.43245865       0.66191566 </v>
   <v>       0.50245535       0.53410184       0.69828412 </v>
   <v>       0.43038464       0.57438662       0.73086820 </v>
   <v>       0.37832516       0.57210585       0.61477644 </v>
   <v>       0.48100781       0.61583853       0.67068644 </v>
  </varray>
  <varray name="selective"  type="logical" >
   <v type="logical" >  T  T  T </v>
   <v type="logical" >  T  T  T </v>
   <v type="logical" >  T  T  T </v>
   <v type="logical" >  T  T  T </v>
   <v type="logical" >  T  T  T </v>
   <v type="logical" >  T  T  T </v>
   <v type="logical" >  T  T  T </v>
   <v type="logical" >  T  T  T </v>
   <v type="logical" >  T  T  T </v>
   <v type="logical" >  T  T  T </v>
   <v type="logical" >  T  T  T </v>
  </varray>
  <nose>
   <v>      -3.00000000       0.00000000       0.00010000       0.00010000 </v>
  </nose>
 </structure>
 <calculation>
  <scstep>
   <time name="dav">    0.88    0.95</time>
   <time name="total">    1.71    1.80</time>
   <energy>
    <i name="alphaZ">      0.20274844 </i>
    <i name="ewald">    943.72961220 </i>
    <i name="hartreedc">  -1268.99831390 </i>
    <i name="XCdc">     57.76215019 </i>
    <i name="pawpsdc">    342.63835863 </i>
    <i name="pawaedc">   -344.41759833 </i>
    <i name="eentropy">      0.00000000 </i>
    <i name="bandstr">   -175.97185887 </i>
    <i name="atom">    541.21073293 </i>
    <i name="e_fr_energy">     96.15583130 </i>
    <i name="e_wo_entrp">     96.15583130 </i>
    <i name="e_0_energy">     96.15583130 </i>
   </energy>
  </scstep>
  <scstep>
   <time name="dav">    1.10    1.10</time>
   <time name="total">    1.10    1.12</time>
   <energy>
    <i name="e_fr_energy">    -16.19506672 </i>
    <i name="e_wo_entrp">    -16.19564651 </i>
    <i name="e_0_energy">    -16.19525999 </i>
   </energy>
  </scstep>
  <scstep>
   <time name="dav">    0.61    0.61</time>
   <time name="total">    0.61    0.63</time>
   <energy>
    <i name="e_fr_energy">    -58.19880366 </i>
    <i name="e_wo_entrp">    -58.19880366 </i>
    <i name="e_0_energy">    -58.19880366 </i>
   </energy>
  </scstep>
  <scstep>
   <time name="dav">    0.61    0.61</time>
   <time name="total">    0.61    0.64</time>
   <energy>
    <i name="e_fr_energy">    -63.93226810 </i>
    <i name="e_wo_entrp">    -63.93284789 </i>
    <i name="e_0_energy">    -63.93246136 </i>
   </energy>
  </scstep>
  <scstep>
   <time name="dav">    0.86    0.86</time>
   <time name="total">    0.86    0.88</time>
   <energy>
    <i name="e_fr_energy">    -64.13842347 </i>
    <i name="e_wo_entrp">    -64.13842347 </i>
    <i name="e_0_energy">    -64.13842347 </i>
   </energy>
  </scstep>
  <scstep>
   <time name="dav">    0.86    0.86</time>
   <time name="total">    0.86    0.88</time>
   <energy>
    <i name="e_fr_energy">    -64.14055703 </i>
    <i name="e_wo_entrp">    -64.14055703 </i>
    <i name="e_0_energy">    -64.14055703 </i>
   </energy>
  </scstep>
  <scstep>
   <time name="dav">    0.86    0.86</time>
   <time name="total">    0.86    0.88</time>
   <energy>
    <i name="e_fr_energy">    -64.14064009 </i>
    <i name="e_wo_entrp">    -64.14064009 </i>
    <i name="e_0_energy">    -64.14064009 </i>
   </energy>
  </scstep>
  <scstep>
   <time name="dav">    0.86    0.86</time>
   <time name="total">    0.86    0.88</time>
   <energy>
    <i name="e_fr_energy">    -64.14064402 </i>
    <i name="e_wo_entrp">    -64.14064402 </i>
    <i name="e_0_energy">    -64.14064402 </i>
   </energy>
  </scstep>
  <scstep>
   <time name="dav">    0.86    0.86</time>
   <time name="total">    0.86    0.88</time>
   <energy>
    <i name="e_fr_energy">    -64.14006443 </i>
    <i name="e_wo_entrp">    -64.14064422 </i>
    <i name="e_0_energy">    -64.14025769 </i>
   </energy>
  </scstep>
  <scstep>
   <time name="dav">    0.73    0.73</time>
   <time name="total">    0.79    0.82</time>
   <energy>
    <i name="e_fr_energy">    -64.14006444 </i>
    <i name="e_wo_entrp">    -64.14064423 </i>
    <i name="e_0_energy">    -64.14025770 </i>
   </energy>
  </scstep>
  <scstep>
   <time name="diag">    0.06    0.06</time>
   <time name="diis">    0.48    0.48</time>
   <time name="orth">    0.00    0.00</time>
   <time name="total">    1.00    1.03</time>
   <energy>
    <i name="e_fr_energy">    -58.51593510 </i>
    <i name="e_wo_entrp">    -58.51593510 </i>
    <i name="e_0_energy">    -58.51593510 </i>
   </energy>
  </scstep>
  <scstep>
   <time name="diag">    0.06    0.06</time>
   <time name="diis">    0.48    0.48</time>
   <time name="orth">    0.00    0.00</time>
   <time name="total">    1.00    1.03</time>
   <energy>
    <i name="e_fr_energy">    -57.28846817 </i>
    <i name="e_wo_entrp">    -57.28904796 </i>
    <i name="e_0_energy">    -57.28866143 </i>
   </energy>
  </scstep>
  <scstep>
   <time name="diag">    0.06    0.06</time>
   <time name="diis">    0.49    0.49</time>
   <time name="orth">    0.00    0.00</time>
   <time name="total">    1.00    1.03</time>
   <energy>
    <i name="e_fr_energy">    -57.02687145 </i>
    <i name="e_wo_entrp">    -57.02745124 </i>
    <i name="e_0_energy">    -57.02706471 </i>
   </energy>
  </scstep>
  <scstep>
   <time name="diag">    0.06    0.06</time>
   <time name="diis">    0.48    0.49</time>
   <time name="orth">    0.00    0.00</time>
   <time name="total">    1.00    1.02</time>
   <energy>
    <i name="e_fr_energy">    -57.00950989 </i>
    <i name="e_wo_entrp">    -57.01008968 </i>
    <i name="e_0_energy">    -57.00970316 </i>
   </energy>
  </scstep>
  <scstep>
   <time name="diag">    0.06    0.06</time>
   <time name="diis">    0.49    0.49</time>
   <time name="orth">    0.00    0.00</time>
   <time name="total">    1.00    1.02</time>
   <energy>
    <i name="e_fr_energy">    -57.00152910 </i>
    <i name="e_wo_entrp">    -57.00210889 </i>
    <i name="e_0_energy">    -57.00172236 </i>
   </energy>
  </scstep>
  <scstep>
   <time name="diag">    0.06    0.06</time>
   <time name="diis">    0.48    0.49</time>
   <time name="orth">    0.00    0.00</time>
   <time name="total">    1.00    1.02</time>
   <energy>
    <i name="e_fr_energy">    -57.00273259 </i>
    <i name="e_wo_entrp">    -57.00331238 </i>
    <i name="e_0_energy">    -57.00292585 </i>
   </energy>
  </scstep>
  <scstep>
   <time name="diag">    0.06    0.06</time>
   <time name="diis">    0.49    0.49</time>
   <time name="orth">    0.00    0.00</time>
   <time name="total">    1.00    1.03</time>
   <energy>
    <i name="e_fr_energy">    -57.00594073 </i>
    <i name="e_wo_entrp">    -57.00594073 </i>
    <i name="e_0_energy">    -57.00594073 </i>
   </energy>
  </scstep>
  <scstep>
   <time name="diag">    0.06    0.06</time>
   <time name="diis">    0.49    0.49</time>
   <time name="orth">    0.00    0.00</time>
   <time name="total">    1.01    1.04</time>
   <energy>
    <i name="e_fr_energy">    -57.01204059 </i>
    <i name="e_wo_entrp">    -57.01262039 </i>
    <i name="e_0_energy">    -57.01223386 </i>
   </energy>
  </scstep>
  <scstep>
   <time name="diag">    0.06    0.06</time>
   <time name="diis">    0.48    0.49</time>
   <time name="orth">    0.00    0.00</time>
   <time name="total">    1.00    1.03</time>
   <energy>
    <i name="e_fr_energy">    -57.01718337 </i>
    <i name="e_wo_entrp">    -57.01718337 </i>
    <i name="e_0_energy">    -57.01718337 </i>
   </energy>
  </scstep>
  <scstep>
   <time name="diag">    0.06    0.06</time>
   <time name="diis">    0.48    0.48</time>
   <time name="orth">    0.00    0.00</time>
   <time name="total">    1.00    1.03</time>
   <energy>
    <i name="e_fr_energy">    -57.02014850 </i>
    <i name="e_wo_entrp">    -57.02072829 </i>
    <i name="e_0_energy">    -57.02034176 </i>
   </energy>
  </scstep>
  <scstep>
   <time name="diag">    0.06    0.06</time>
   <time name="diis">    0.48    0.48</time>
   <time name="orth">    0.00    0.00</time>
   <time name="total">    1.01    1.03</time>
   <energy>
    <i name="e_fr_energy">    -57.02111378 </i>
    <i name="e_wo_entrp">    -57.02111378 </i>
    <i name="e_0_energy">    -57.02111378 </i>
   </energy>
  </scstep>
  <scstep>
   <time name="diag">    0.06    0.06</time>
   <time name="diis">    0.48    0.48</time>
   <time name="orth">    0.00    0.00</time>
   <time name="total">    1.01    1.03</time>
   <energy>
    <i name="e_fr_energy">    -57.02147182 </i>
    <i name="e_wo_entrp">    -57.02205161 </i>
    <i name="e_0_energy">    -57.02166508 </i>
   </energy>
  </scstep>
  <scstep>
   <time name="diag">    0.07    0.07</time>
   <time name="diis">    0.49    0.49</time>
   <time name="orth">    0.00    0.00</time>
   <time name="total">    1.01    1.04</time>
   <energy>
    <i name="e_fr_energy">    -57.02207359 </i>
    <i name="e_wo_entrp">    -57.02207359 </i>
    <i name="e_0_energy">    -57.02207359 </i>
   </energy>
  </scstep>
  <scstep>
   <time name="diag">    0.06    0.07</time>
   <time name="diis">    0.49    0.49</time>
   <time name="orth">    0.00    0.00</time>
   <time name="total">    1.01    1.04</time>
   <energy>
    <i name="e_fr_energy">    -57.02169035 </i>
    <i name="e_wo_entrp">    -57.02227014 </i>
    <i name="e_0_energy">    -57.02188362 </i>
   </energy>
  </scstep>
  <scstep>
   <time name="diag">    0.06    0.07</time>
   <time name="diis">    0.34    0.34</time>
   <time name="orth">    0.00    0.00</time>
   <time name="total">    0.87    0.90</time>
   <energy>
    <i name="e_fr_energy">    -57.02171709 </i>
    <i name="e_wo_entrp">    -57.02229689 </i>
    <i name="e_0_energy">    -57.02191036 </i>
   </energy>
  </scstep>
  <scstep>
   <time name="diag">    0.06    0.06</time>
   <time name="diis">    0.35    0.35</time>
   <time name="orth">    0.00    0.00</time>
   <time name="total">    0.87    0.90</time>
   <energy>
    <i name="e_fr_energy">    -57.02175512 </i>
    <i name="e_wo_entrp">    -57.02233491 </i>
    <i name="e_0_energy">    -57.02194838 </i>
   </energy>
  </scstep>
  <scstep>
   <time name="diag">    0.06    0.06</time>
   <time name="diis">    0.34    0.34</time>
   <time name="orth">    0.00    0.00</time>
   <time name="total">    0.88    0.90</time>
   <energy>
    <i name="e_fr_energy">    -57.02176129 </i>
    <i name="e_wo_entrp">    -57.02234108 </i>
    <i name="e_0_energy">    -57.02195455 </i>
   </energy>
  </scstep>
  <scstep>
   <time name="diag">    0.07    0.07</time>
   <time name="diis">    0.36    0.36</time>
   <time name="orth">    0.00    0.00</time>
   <time name="total">    1.61    1.66</time>
   <energy>
    <i name="e_fr_energy">    -57.02176721 </i>
    <i name="e_wo_entrp">    -57.02234701 </i>
    <i name="e_0_energy">    -57.02196048 </i>
   </energy>
  </scstep>
  <scstep>
   <time name="diag">    0.07    0.07</time>
   <time name="diis">    0.35    0.35</time>
   <time name="orth">    0.00    0.00</time>
   <time name="total">    0.81    0.83</time>
   <energy>
    <i name="alphaZ">      0.20274844 </i>
    <i name="ewald">    943.72961220 </i>
    <i name="hartreedc">  -1375.93124656 </i>
    <i name="XCdc">     63.55969165 </i>
    <i name="pawpsdc">   1314.19013127 </i>
    <i name="pawaedc">  -1316.41744365 </i>
    <i name="eentropy">      0.00057979 </i>
    <i name="bandstr">   -227.56657419 </i>
    <i name="atom">    541.21073293 </i>
    <i name="e_fr_energy">    -57.02176812 </i>
    <i name="e_wo_entrp">    -57.02234791 </i>
    <i name="e_0_energy">    -57.02196138 </i>
   </energy>
  </scstep>
  <structure>
   <crystal>
    <varray name="basis" >
     <v>      16.32993162      -8.16496581      -8.16496581 </v>
     <v>       0.00000000      14.14213562     -14.14213562 </v>
     <v>      11.54700538      11.54700538      11.54700538 </v>
    </varray>
    <i name="volume">   8000.00000000 </i>
    <varray name="rec_basis" >
     <v>       0.04082483      -0.02041241      -0.02041241 </v>
     <v>       0.00000000       0.03535534      -0.03535534 </v>
     <v>       0.02886751       0.02886751       0.02886751 </v>
    </varray>
   </crystal>
   <varray name="positions" >
    <v>       0.41782252       0.53648465       0.62939885 </v>
    <v>       0.38591632       0.46999442       0.64947300 </v>
    <v>       0.46025902       0.56699175       0.68517015 </v>
    <v>       0.44896666       0.52917061       0.58444666 </v>
    <v>       0.35472887       0.44930041       0.60915076 </v>
    <v>       0.35390429       0.47612522       0.69389334 </v>
    <v>       0.42426330       0.43245865       0.66191566 </v>
    <v>       0.50245535       0.53410184       0.69828412 </v>
    <v>       0.43038464       0.57438662       0.73086820 </v>
    <v>       0.37832516       0.57210585       0.61477644 </v>
    <v>       0.48100781       0.61583853       0.67068644 </v>
   </varray>
  </structure>
  <varray name="forces" >
   <v>      -0.00097116      -0.00167396      -0.00193250 </v>
   <v>       0.00233951       0.00332341       0.00196425 </v>
   <v>      -0.00011314       0.00053466       0.00385192 </v>
   <v>      -0.00470431       0.00564962      -0.00094038 </v>
   <v>       0.00134902      -0.00739094      -0.00135789 </v>
   <v>      -0.00334008      -0.00439717       0.00033863 </v>
   <v>       0.00459938       0.00165804      -0.00197958 </v>
   <v>      -0.00216822      -0.00028053       0.00776903 </v>
   <v>      -0.00011375       0.00403012      -0.00703193 </v>
   <v>      -0.00142514       0.00610315       0.00360610 </v>
   <v>       0.00454788      -0.00755642      -0.00428765 </v>
  </varray>
  <varray name="stress" >
   <v>      -0.17373444      -0.00224745       0.00189037 </v>
   <v>      -0.00224744      -0.17438791       0.00034444 </v>
   <v>       0.00189037       0.00034444      -0.17558957 </v>
  </varray>
  <energy>
   <i name="e_fr_energy">    -57.08709339 </i>
   <i name="e_wo_entrp">    -57.08728665 </i>
   <i name="e_0_energy">      0.00057979 </i>
  </energy>
  <time name="totalsc">   29.78   30.60</time>
  <eigenvalues>
   <array>
    <dimension dim="1">band</dimension>
    <dimension dim="2">kpoint</dimension>
    <dimension dim="3">spin</dimension>
    <field>eigene</field>
    <field>occ</field>
    <set>
     <set comment="spin 1">
      <set comment="kpoint 1">
       <r>  -19.1962    1.0000 </r>
       <r>  -16.6137    1.0000 </r>
       <r>  -14.1691    1.0000 </r>
       <r>  -11.0185    1.0000 </r>
       <r>  -10.5323    1.0000 </r>
       <r>   -9.5481    1.0000 </r>
       <r>   -9.0362    1.0000 </r>
       <r>   -8.0354    1.0000 </r>
       <r>   -7.9735    1.0000 </r>
       <r>   -7.6603    1.0000 </r>
       <r>   -0.4697    0.0000 </r>
       <r>    0.0688    0.0000 </r>
       <r>    0.0779    0.0000 </r>
       <r>    0.0977    0.0000 </r>
       <r>    0.1457    0.0000 </r>
       <r>    0.3375    0.0000 </r>
      </set>
     </set>
    </set>
   </array>
  </eigenvalues>
  <separator name="orbital magnetization" >
   <v name="MAGDIPOLOUT">      0.00000000      0.00000000      0.00000000</v>
  </separator>
 </calculation>
 <structure name="finalpos" >
  <crystal>
   <varray name="basis" >
    <v>      16.32993162      -8.16496581      -8.16496581 </v>
    <v>       0.00000000      14.14213562     -14.14213562 </v>
    <v>      11.54700538      11.54700538      11.54700538 </v>
   </varray>
   <i name="volume">   8000.00000000 </i>
   <varray name="rec_basis" >
    <v>       0.04082483      -0.02041241      -0.02041241 </v>
    <v>       0.00000000       0.03535534      -0.03535534 </v>
    <v>       0.02886751       0.02886751       0.02886751 </v>
   </varray>
  </crystal>
  <varray name="positions" >
   <v>       0.41782252       0.53648465       0.62939885 </v>
   <v>       0.38591632       0.46999442       0.64947300 </v>
   <v>       0.46025902       0.56699175       0.68517015 </v>
   <v>       0.44896666       0.52917061       0.58444666 </v>
   <v>       0.35472887       0.44930041       0.60915076 </v>
   <v>       0.35390429       0.47612522       0.69389334 </v>
   <v>       0.42426330       0.43245865       0.66191566 </v>
   <v>       0.50245535       0.53410184       0.69828412 </v>
   <v>       0.43038464       0.57438662       0.73086820 </v>
   <v>       0.37832516       0.57210585       0.61477644 </v>
   <v>       0.48100781       0.61583853       0.67068644 </v>
  </varray>
  <varray name="selective"  type="logical" >
   <v type="logical" >  T  T  T </v>
   <v type="logical" >  T  T  T </v>
   <v type="logical" >  T  T  T </v>
   <v type="logical" >  T  T  T </v>
   <v type="logical" >  T  T  T </v>
   <v type="logical" >  T  T  T </v>
   <v type="logical" >  T  T  T </v>
   <v type="logical" >  T  T  T </v>
   <v type="logical" >  T  T  T </v>
   <v type="logical" >  T  T  T </v>
   <v type="logical" >  T  T  T </v>
  </varray>
  <nose>
   <v>      -3.00000000       0.00000000       0.00010000       0.00010000 </v>
  </nose>
 </structure>
</modeling>
