   13   13  200    1
  0.6153846E+03  0.2000000E-08  0.2000000E-08  0.2000000E-08  0.5000000E-15
  1.000000000000000E-004
  CAR 
 unknown system                          
   30    1   22
 
  0.0000000E+00  0.0000000E+00  0.0000000E+00  0.1000000E+01
   1      -25.769415
   2      -19.186489
   3      -18.063515
   4      -14.555223
   5      -14.418565
   6      -12.137573
   7      -11.785154
   8      -10.933578
   9       -9.921897
  10       -9.569577
  11       -8.529375
  12       -8.348913
  13       -7.679395
  14       -7.518284
  15       -5.706254
  16       -0.558908
  17       -0.069887
  18        0.004008
  19        0.093027
  20        0.125949
  21        0.415512
  22        1.292983
