<?xml version="1.0" encoding="ISO-8859-1"?>
<modeling>
 <generator>
  <i name="program" type="string">vasp </i>
  <i name="version" type="string">5.3.2  </i>
  <i name="subversion" type="string">13Sep12 (build Oct  1 2014 14:03:07) gamma-only                       parallel </i>
  <i name="platform" type="string">LinuxIFC </i>
  <i name="date" type="string">2015 11 23 </i>
  <i name="time" type="string">13:12:34 </i>
 </generator>
 <incar>
  <i type="int" name="ISTART">     0</i>
  <i type="string" name="PREC">med</i>
  <i type="string" name="ALGO"> Fast</i>
  <i type="int" name="ISPIN">     1</i>
  <i type="int" name="NELM">   400</i>
  <i type="int" name="NELMDL">   -10</i>
  <i type="int" name="IBRION">     1</i>
  <i type="int" name="NFREE">     2</i>
  <i name="EDIFF">      0.00000100</i>
  <i name="EDIFFG">     -0.01000000</i>
  <i type="int" name="NSW">   200</i>
  <i type="int" name="ISIF">     2</i>
  <i type="int" name="ISYM">     0</i>
  <i name="ENCUT">    400.00000000</i>
  <i name="POTIM">      0.50000000</i>
  <i type="string" name="LREAL"> auto</i>
  <v name="ROPT">     -0.00020000     -0.00020000     -0.00020000</v>
  <i type="logical" name="LPLANE"> T  </i>
  <i type="int" name="ISMEAR">     1</i>
  <i name="SIGMA">      0.01000000</i>
  <i type="int" name="NWRITE">     1</i>
  <i type="logical" name="LWAVE"> F  </i>
  <i type="logical" name="LCHARG"> F  </i>
  <i type="logical" name="LVTOT"> F  </i>
  <i type="int" name="NELM">   400</i>
  <i type="int" name="VOSKOWN">     1</i>
 </incar>
 <kpoints>
  <generation param="Monkhorst-Pack">
   <v type="int" name="divisions">       1        1        1 </v>
   <v name="usershift">      0.00000000       0.00000000       0.00000000 </v>
   <v name="genvec1">      1.00000000       0.00000000       0.00000000 </v>
   <v name="genvec2">      0.00000000       1.00000000       0.00000000 </v>
   <v name="genvec3">      0.00000000       0.00000000       1.00000000 </v>
   <v name="shift">      0.00000000       0.00000000       0.00000000 </v>
  </generation>
  <varray name="kpointlist" >
   <v>       0.00000000       0.00000000       0.00000000 </v>
  </varray>
  <varray name="weights" >
   <v>       1.00000000 </v>
  </varray>
 </kpoints>
 <parameters>
  <separator name="general" >
   <i type="string" name="SYSTEM">unknown system</i>
   <i type="logical" name="LCOMPAT"> F  </i>
  </separator>
  <separator name="electronic" >
   <i type="string" name="PREC">med</i>
   <i name="ENMAX">    400.00000000</i>
   <i name="ENAUG">    644.87300000</i>
   <i name="EDIFF">      0.00000100</i>
   <i type="int" name="IALGO">    68</i>
   <i type="int" name="IWAVPR">    11</i>
   <i type="int" name="NBANDS">    22</i>
   <i name="NELECT">     30.00000000</i>
   <i type="int" name="TURBO">     0</i>
   <i type="int" name="IRESTART">     0</i>
   <i type="int" name="NREBOOT">     0</i>
   <i type="int" name="NMIN">     0</i>
   <i name="EREF">      0.00000000</i>
   <separator name="electronic smearing" >
    <i type="int" name="ISMEAR">     1</i>
    <i name="SIGMA">      0.01000000</i>
    <i name="KSPACING">      0.50000000</i>
    <i type="logical" name="KGAMMA"> T  </i>
   </separator>
   <separator name="electronic projectors" >
    <i type="logical" name="LREAL"> T  </i>
    <v name="ROPT">     -0.00020000     -0.00020000     -0.00020000</v>
    <i type="int" name="LMAXPAW">  -100</i>
    <i type="int" name="LMAXMIX">     2</i>
    <i type="logical" name="NLSPLINE"> F  </i>
   </separator>
   <separator name="electronic startup" >
    <i type="int" name="ISTART">     0</i>
    <i type="int" name="ICHARG">     2</i>
    <i type="int" name="INIWAV">     1</i>
   </separator>
   <separator name="electronic spin" >
    <i type="int" name="ISPIN">     1</i>
    <i type="logical" name="LNONCOLLINEAR"> F  </i>
    <v name="MAGMOM">      1.00000000      1.00000000      1.00000000      1.00000000      1.00000000      1.00000000      1.00000000      1.00000000      1.00000000      1.00000000      1.00000000      1.00000000      1.00000000</v>
    <i name="NUPDOWN">     -1.00000000</i>
    <i type="logical" name="LSORBIT"> F  </i>
    <v name="SAXIS">      0.00000000      0.00000000      1.00000000</v>
    <i type="logical" name="LSPIRAL"> F  </i>
    <v name="QSPIRAL">      0.00000000      0.00000000      0.00000000</v>
    <i type="logical" name="LZEROZ"> F  </i>
   </separator>
   <separator name="electronic exchange-correlation" >
    <i type="logical" name="LASPH"> F  </i>
    <i type="logical" name="LMETAGGA"> F  </i>
   </separator>
   <separator name="electronic convergence" >
    <i type="int" name="NELM">   400</i>
    <i type="int" name="NELMDL">   -10</i>
    <i type="int" name="NELMIN">     2</i>
    <i name="ENINI">    400.00000000</i>
    <separator name="electronic convergence detail" >
     <i type="logical" name="LDIAG"> T  </i>
     <i type="logical" name="LSUBROT"> T  </i>
     <i name="WEIMIN">      0.00100000</i>
     <i name="EBREAK">      0.00000001</i>
     <i name="DEPER">      0.30000000</i>
     <i type="int" name="NRMM">     4</i>
     <i name="TIME">      0.40000000</i>
    </separator>
   </separator>
   <separator name="electronic mixer" >
    <i name="AMIX">      0.40000000</i>
    <i name="BMIX">      1.00000000</i>
    <i name="AMIN">      0.10000000</i>
    <i name="AMIX_MAG">      1.60000000</i>
    <i name="BMIX_MAG">      1.00000000</i>
    <separator name="electronic mixer details" >
     <i type="int" name="IMIX">     4</i>
     <i type="int" name="MAXMIX">   -45</i>
     <i name="WC">    100.00000000</i>
     <i type="int" name="INIMIX">     1</i>
     <i type="int" name="MIXPRE">     1</i>
     <i type="int" name="MREMOVE">     5</i>
    </separator>
   </separator>
   <separator name="electronic dipolcorrection" >
    <i type="logical" name="LDIPOL"> F  </i>
    <i type="logical" name="LMONO"> F  </i>
    <i type="int" name="IDIPOL">     0</i>
    <i name="EPSILON">      1.00000000</i>
    <v name="DIPOL">   -100.00000000   -100.00000000   -100.00000000</v>
    <i name="EFIELD">      0.00000000</i>
   </separator>
  </separator>
  <separator name="grids" >
   <i type="int" name="NGX">    98</i>
   <i type="int" name="NGY">    98</i>
   <i type="int" name="NGZ">    98</i>
   <i type="int" name="NGXF">   168</i>
   <i type="int" name="NGYF">   168</i>
   <i type="int" name="NGZF">   168</i>
   <i type="logical" name="ADDGRID"> F  </i>
  </separator>
  <separator name="ionic" >
   <i type="int" name="NSW">   200</i>
   <i type="int" name="IBRION">     1</i>
   <i type="int" name="ISIF">     2</i>
   <i name="PSTRESS">      0.00000000</i>
   <i name="EDIFFG">     -0.01000000</i>
   <i type="int" name="NFREE">     2</i>
   <i name="POTIM">      0.50000000</i>
   <i name="SMASS">     -3.00000000</i>
   <i name="SCALEE">      1.00000000</i>
  </separator>
  <separator name="ionic md" >
   <i name="TEBEG">      0.00010000</i>
   <i name="TEEND">      0.00010000</i>
   <i type="int" name="NBLOCK">     1</i>
   <i type="int" name="KBLOCK">   200</i>
   <i type="int" name="NPACO">   256</i>
   <i name="APACO">     16.00000000</i>
  </separator>
  <separator name="symmetry" >
   <i type="int" name="ISYM">     0</i>
   <i name="SYMPREC">      0.00001000</i>
  </separator>
  <separator name="dos" >
   <i type="logical" name="LORBIT"> F  </i>
   <v name="RWIGS">     -1.00000000     -1.00000000     -1.00000000</v>
   <i type="int" name="NEDOS">   301</i>
   <i name="EMIN">     10.00000000</i>
   <i name="EMAX">    -10.00000000</i>
   <i name="EFERMI">      0.00000000</i>
  </separator>
  <separator name="writing" >
   <i type="int" name="NWRITE">     1</i>
   <i type="logical" name="LWAVE"> F  </i>
   <i type="logical" name="LCHARG"> F  </i>
   <i type="logical" name="LPARD"> F  </i>
   <i type="logical" name="LVTOT"> F  </i>
   <i type="logical" name="LVHAR"> F  </i>
   <i type="logical" name="LELF"> F  </i>
   <i type="logical" name="LOPTICS"> F  </i>
   <v name="STM">      0.00000000      0.00000000      0.00000000      0.00000000      0.00000000      0.00000000      0.00000000</v>
  </separator>
  <separator name="performance" >
   <i type="int" name="NPAR">     1</i>
   <i type="int" name="NSIM">     4</i>
   <i type="int" name="NBLK">    -1</i>
   <i type="logical" name="LPLANE"> T  </i>
   <i type="logical" name="LSCALAPACK"> F  </i>
   <i type="logical" name="LSCAAWARE"> F  </i>
   <i type="logical" name="LSCALU"> F  </i>
   <i type="logical" name="LASYNC"> F  </i>
   <i type="logical" name="LORBITALREAL"> F  </i>
  </separator>
  <separator name="miscellaneous" >
   <i type="int" name="IDIOT">     3</i>
   <i type="logical" name="LMUSIC"> F  </i>
   <v name="POMASS">     16.00000000     12.01100000      1.00000000</v>
   <v name="DARWINR">      0.00000000      0.00000000      0.00000000</v>
   <v name="DARWINV">      1.00000000      1.00000000      1.00000000</v>
   <i type="logical" name="LCORR"> T  </i>
  </separator>
  <i type="logical" name="GGA_COMPAT"> T  </i>
  <i type="logical" name="LBERRY"> F  </i>
  <i type="int" name="ICORELEVEL">     0</i>
  <i type="logical" name="LDAU"> F  </i>
  <i type="int" name="I_CONSTRAINED_M">     0</i>
  <separator name="electronic exchange-correlation" >
   <i type="string" name="GGA">--</i>
   <i type="int" name="VOSKOWN">     1</i>
   <i type="logical" name="LHFCALC"> F  </i>
   <i type="string" name="PRECFOCK"></i>
   <i type="logical" name="LSYMGRAD"> F  </i>
   <i type="logical" name="LHFONE"> F  </i>
   <i type="logical" name="LRHFCALC"> F  </i>
   <i type="logical" name="LTHOMAS"> F  </i>
   <i type="logical" name="LMODELHF"> F  </i>
   <i name="ENCUT4O">     -1.00000000</i>
   <i type="int" name="EXXOEP">     0</i>
   <i type="int" name="FOURORBIT">     0</i>
   <i name="AEXX">      0.00000000</i>
   <i name="HFALPHA">      0.00000000</i>
   <i name="MCALPHA">      0.00000000</i>
   <i name="ALDAX">      1.00000000</i>
   <i name="AGGAX">      1.00000000</i>
   <i name="ALDAC">      1.00000000</i>
   <i name="AGGAC">      1.00000000</i>
   <i type="int" name="NKREDX">     1</i>
   <i type="int" name="NKREDY">     1</i>
   <i type="int" name="NKREDZ">     1</i>
   <i type="logical" name="SHIFTRED"> F  </i>
   <i type="logical" name="ODDONLY"> F  </i>
   <i type="logical" name="EVENONLY"> F  </i>
   <i type="int" name="LMAXFOCK">     0</i>
   <i type="int" name="NMAXFOCKAE">     0</i>
   <i type="logical" name="LFOCKAEDFT"> F  </i>
   <i name="HFSCREEN">      0.00000000</i>
   <i name="HFSCREENC">      0.00000000</i>
   <i type="int" name="NBANDSGWLOW">     0</i>
  </separator>
  <separator name="vdW DFT" >
   <i type="logical" name="LUSE_VDW"> F  </i>
   <i name="Zab_VDW">     -0.84910000</i>
   <i name="PARAM1">      0.12340000</i>
   <i name="PARAM2">      1.00000000</i>
   <i name="PARAM3">      0.00000000</i>
  </separator>
  <separator name="model GW" >
   <i type="int" name="MODEL_GW">     0</i>
   <i name="MODEL_EPS0">    369.23076923</i>
   <i name="MODEL_ALPHA">      1.00000000</i>
  </separator>
  <separator name="linear response parameters" >
   <i type="logical" name="LEPSILON"> F  </i>
   <i type="logical" name="LRPA"> F  </i>
   <i type="logical" name="LNABLA"> F  </i>
   <i type="logical" name="LVEL"> F  </i>
   <i type="int" name="KINTER">     0</i>
   <i name="CSHIFT">      0.10000000</i>
   <i name="OMEGAMAX">     -1.00000000</i>
   <i name="DEG_THRESHOLD">      0.00200000</i>
  </separator>
  <separator name="orbital magnetization" >
   <i type="logical" name="NUCIND"> F  </i>
   <v name="MAGPOS">      0.00000000      0.00000000      0.00000000</v>
   <i type="logical" name="LNICSALL"> T  </i>
   <i type="logical" name="ORBITALMAG"> F  </i>
   <i type="logical" name="LMAGBLOCH"> F  </i>
   <i type="logical" name="LCHIMAG"> F  </i>
   <i type="logical" name="LGAUGE"> T  </i>
   <i type="int" name="MAGATOM">     0</i>
   <v name="MAGDIPOL">      0.00000000      0.00000000      0.00000000</v>
   <v name="AVECCONST">      0.00000000      0.00000000      0.00000000</v>
  </separator>
  <separator name="response functions" >
   <i type="logical" name="LADDER"> F  </i>
   <i type="logical" name="LHARTREE"> T  </i>
   <i type="int" name="IBSE">     0</i>
   <i type="logical" name="LTCTE"> F  </i>
   <i type="logical" name="LTETE"> F  </i>
   <i type="logical" name="LTRIPLET"> F  </i>
   <i type="logical" name="LFXCEPS"> F  </i>
   <i type="logical" name="L2ORDER"> F  </i>
   <i type="logical" name="LUSEW"> F  </i>
   <i name="ENCUTGW">     -2.00000000</i>
   <i name="ENCUTGWSOFT">     -2.00000000</i>
   <i name="ENCUTLF">     -1.00000000</i>
   <i type="int" name="LMAXMP2">    -1</i>
   <i name="SCISSOR">      0.00000000</i>
   <i type="int" name="NOMEGA">     0</i>
   <i type="int" name="NOMEGAR">     0</i>
   <i type="int" name="NBANDSGW">    -1</i>
   <i type="int" name="NBANDSO">    -1</i>
   <i type="int" name="NBANDSV">    -1</i>
   <i type="int" name="NELM">   400</i>
   <i type="int" name="DIM">     3</i>
   <i type="int" name="ANTIRES">     0</i>
   <i name="OMEGAMAX">    -30.00000000</i>
   <i name="OMEGATL">   -200.00000000</i>
   <i type="int" name="OMEGAGRID">     0</i>
   <i name="CSHIFT">     -0.10000000</i>
   <i type="logical" name="SELFENERGY"> F  </i>
   <i type="logical" name="LSPECTRAL"> F  </i>
   <i type="logical" name="ODDONLYGW"> F  </i>
   <i type="logical" name="EVENONLYGW"> F  </i>
   <i type="int" name="NKREDLFX">     1</i>
   <i type="int" name="NKREDLFY">     1</i>
   <i type="int" name="NKREDLFZ">     1</i>
   <i type="int" name="MAXMEM">  1800</i>
   <i type="int" name="TELESCOPE">     0</i>
  </separator>
 </parameters>
 <atominfo>
  <atoms>      13 </atoms>
  <types>       3 </types>
  <array name="atoms" >
   <dimension dim="1">ion</dimension>
   <field type="string">element</field>
   <field type="int">atomtype</field>
   <set>
    <rc><c>O </c><c>   1</c></rc>
    <rc><c>C </c><c>   2</c></rc>
    <rc><c>C </c><c>   2</c></rc>
    <rc><c>C </c><c>   2</c></rc>
    <rc><c>C </c><c>   2</c></rc>
    <rc><c>H </c><c>   3</c></rc>
    <rc><c>H </c><c>   3</c></rc>
    <rc><c>H </c><c>   3</c></rc>
    <rc><c>H </c><c>   3</c></rc>
    <rc><c>H </c><c>   3</c></rc>
    <rc><c>H </c><c>   3</c></rc>
    <rc><c>H </c><c>   3</c></rc>
    <rc><c>H </c><c>   3</c></rc>
   </set>
  </array>
  <array name="atomtypes" >
   <dimension dim="1">type</dimension>
   <field type="int">atomspertype</field>
   <field type="string">element</field>
   <field>mass</field>
   <field>valence</field>
   <field type="string">pseudopotential</field>
   <set>
    <rc><c>   1</c><c>O </c><c>     16.00000000</c><c>      6.00000000</c><c>  PAW_PBE O 08Apr2002                   </c></rc>
    <rc><c>   4</c><c>C </c><c>     12.01100000</c><c>      4.00000000</c><c>  PAW_PBE C 08Apr2002                   </c></rc>
    <rc><c>   8</c><c>H </c><c>      1.00000000</c><c>      1.00000000</c><c>  PAW_PBE H 15Jun2001                   </c></rc>
   </set>
  </array>
 </atominfo>
 <structure name="initialpos" >
  <crystal>
   <varray name="basis" >
    <v>      16.32993162      -8.16496581      -8.16496581 </v>
    <v>       0.00000000      14.14213562     -14.14213562 </v>
    <v>      11.54700538      11.54700538      11.54700538 </v>
   </varray>
   <i name="volume">   8000.00000000 </i>
   <varray name="rec_basis" >
    <v>       0.04082483      -0.02041241      -0.02041241 </v>
    <v>       0.00000000       0.03535534      -0.03535534 </v>
    <v>       0.02886751       0.02886751       0.02886751 </v>
   </varray>
  </crystal>
  <varray name="positions" >
   <v>       0.42021131       0.56122673       0.56107735 </v>
   <v>       0.41403687       0.53576714       0.62768450 </v>
   <v>       0.41492089       0.63244204       0.56734816 </v>
   <v>       0.45017115       0.65110466       0.63345823 </v>
   <v>       0.45486520       0.58372451       0.67152864 </v>
   <v>       0.43259547       0.48405225       0.62743150 </v>
   <v>       0.36072340       0.53538810       0.64312064 </v>
   <v>       0.43801797       0.65456112       0.52266221 </v>
   <v>       0.36152088       0.64726021       0.56870206 </v>
   <v>       0.50011209       0.67203017       0.62426361 </v>
   <v>       0.42139937       0.68871694       0.66135372 </v>
   <v>       0.50706647       0.56683786       0.67465549 </v>
   <v>       0.43514363       0.58685237       0.72272691 </v>
  </varray>
  <varray name="selective"  type="logical" >
   <v type="logical" >  T  T  T </v>
   <v type="logical" >  T  T  T </v>
   <v type="logical" >  T  T  T </v>
   <v type="logical" >  T  T  T </v>
   <v type="logical" >  T  T  T </v>
   <v type="logical" >  T  T  T </v>
   <v type="logical" >  T  T  T </v>
   <v type="logical" >  T  T  T </v>
   <v type="logical" >  T  T  T </v>
   <v type="logical" >  T  T  T </v>
   <v type="logical" >  T  T  T </v>
   <v type="logical" >  T  T  T </v>
   <v type="logical" >  T  T  T </v>
  </varray>
  <nose>
   <v>      -3.00000000       0.00000000       0.00010000       0.00010000 </v>
  </nose>
 </structure>
 <calculation>
  <scstep>
   <time name="dav">    0.49    0.51</time>
   <time name="total">    1.05    1.08</time>
   <energy>
    <i name="alphaZ">      0.46798175 </i>
    <i name="ewald">   1980.40165735 </i>
    <i name="hartreedc">  -2761.62146594 </i>
    <i name="XCdc">     99.06819456 </i>
    <i name="pawpsdc">    797.70988190 </i>
    <i name="pawaedc">   -801.85719807 </i>
    <i name="eentropy">      0.00057979 </i>
    <i name="bandstr">   -220.08688222 </i>
    <i name="atom">   1120.60115284 </i>
    <i name="e_fr_energy">    214.68390196 </i>
    <i name="e_wo_entrp">    214.68332217 </i>
    <i name="e_0_energy">    214.68370870 </i>
   </energy>
  </scstep>
  <scstep>
   <time name="dav">    0.61    0.61</time>
   <time name="total">    0.61    0.64</time>
   <energy>
    <i name="e_fr_energy">     65.44859764 </i>
    <i name="e_wo_entrp">     65.44801785 </i>
    <i name="e_0_energy">     65.44840438 </i>
   </energy>
  </scstep>
  <scstep>
   <time name="dav">    0.51    0.51</time>
   <time name="total">    0.51    0.53</time>
   <energy>
    <i name="e_fr_energy">    -51.53166276 </i>
    <i name="e_wo_entrp">    -51.53166276 </i>
    <i name="e_0_energy">    -51.53166276 </i>
   </energy>
  </scstep>
  <scstep>
   <time name="dav">    0.45    0.46</time>
   <time name="total">    0.46    0.48</time>
   <energy>
    <i name="e_fr_energy">    -78.10814347 </i>
    <i name="e_wo_entrp">    -78.10814347 </i>
    <i name="e_0_energy">    -78.10814347 </i>
   </energy>
  </scstep>
  <scstep>
   <time name="dav">    0.51    0.51</time>
   <time name="total">    0.51    0.53</time>
   <energy>
    <i name="e_fr_energy">    -78.96490064 </i>
    <i name="e_wo_entrp">    -78.96548043 </i>
    <i name="e_0_energy">    -78.96509391 </i>
   </energy>
  </scstep>
  <scstep>
   <time name="dav">    0.47    0.47</time>
   <time name="total">    0.47    0.49</time>
   <energy>
    <i name="e_fr_energy">    -78.96983912 </i>
    <i name="e_wo_entrp">    -78.97041891 </i>
    <i name="e_0_energy">    -78.97003238 </i>
   </energy>
  </scstep>
  <scstep>
   <time name="dav">    0.56    0.56</time>
   <time name="total">    0.56    0.58</time>
   <energy>
    <i name="e_fr_energy">    -78.96992338 </i>
    <i name="e_wo_entrp">    -78.97050317 </i>
    <i name="e_0_energy">    -78.97011665 </i>
   </energy>
  </scstep>
  <scstep>
   <time name="dav">    0.50    0.50</time>
   <time name="total">    0.51    0.53</time>
   <energy>
    <i name="e_fr_energy">    -78.96992627 </i>
    <i name="e_wo_entrp">    -78.97050606 </i>
    <i name="e_0_energy">    -78.97011953 </i>
   </energy>
  </scstep>
  <scstep>
   <time name="dav">    0.56    0.56</time>
   <time name="total">    0.56    0.58</time>
   <energy>
    <i name="e_fr_energy">    -78.97050622 </i>
    <i name="e_wo_entrp">    -78.97050622 </i>
    <i name="e_0_energy">    -78.97050622 </i>
   </energy>
  </scstep>
  <scstep>
   <time name="dav">    0.41    0.41</time>
   <time name="total">    0.47    0.49</time>
   <energy>
    <i name="e_fr_energy">    -78.97050623 </i>
    <i name="e_wo_entrp">    -78.97050623 </i>
    <i name="e_0_energy">    -78.97050623 </i>
   </energy>
  </scstep>
  <scstep>
   <time name="diag">    0.04    0.04</time>
   <time name="diis">    0.29    0.29</time>
   <time name="orth">    0.00    0.00</time>
   <time name="total">    0.80    0.83</time>
   <energy>
    <i name="e_fr_energy">    -73.64353335 </i>
    <i name="e_wo_entrp">    -73.64411314 </i>
    <i name="e_0_energy">    -73.64372661 </i>
   </energy>
  </scstep>
  <scstep>
   <time name="diag">    0.04    0.04</time>
   <time name="diis">    0.29    0.29</time>
   <time name="orth">    0.00    0.00</time>
   <time name="total">    0.80    0.83</time>
   <energy>
    <i name="e_fr_energy">    -72.20162166 </i>
    <i name="e_wo_entrp">    -72.20220145 </i>
    <i name="e_0_energy">    -72.20181493 </i>
   </energy>
  </scstep>
  <scstep>
   <time name="diag">    0.04    0.04</time>
   <time name="diis">    0.29    0.29</time>
   <time name="orth">    0.00    0.00</time>
   <time name="total">    0.81    0.83</time>
   <energy>
    <i name="e_fr_energy">    -72.00203977 </i>
    <i name="e_wo_entrp">    -72.00261956 </i>
    <i name="e_0_energy">    -72.00223303 </i>
   </energy>
  </scstep>
  <scstep>
   <time name="diag">    0.04    0.04</time>
   <time name="diis">    0.30    0.30</time>
   <time name="orth">    0.00    0.00</time>
   <time name="total">    0.82    0.84</time>
   <energy>
    <i name="e_fr_energy">    -71.98279469 </i>
    <i name="e_wo_entrp">    -71.98337448 </i>
    <i name="e_0_energy">    -71.98298796 </i>
   </energy>
  </scstep>
  <scstep>
   <time name="diag">    0.04    0.04</time>
   <time name="diis">    0.29    0.29</time>
   <time name="orth">    0.00    0.00</time>
   <time name="total">    0.81    0.83</time>
   <energy>
    <i name="e_fr_energy">    -71.98019896 </i>
    <i name="e_wo_entrp">    -71.98077875 </i>
    <i name="e_0_energy">    -71.98039222 </i>
   </energy>
  </scstep>
  <scstep>
   <time name="diag">    0.04    0.04</time>
   <time name="diis">    0.28    0.29</time>
   <time name="orth">    0.00    0.00</time>
   <time name="total">    0.81    0.84</time>
   <energy>
    <i name="e_fr_energy">    -71.97836789 </i>
    <i name="e_wo_entrp">    -71.97836789 </i>
    <i name="e_0_energy">    -71.97836789 </i>
   </energy>
  </scstep>
  <scstep>
   <time name="diag">    0.04    0.04</time>
   <time name="diis">    0.29    0.29</time>
   <time name="orth">    0.00    0.00</time>
   <time name="total">    0.82    0.84</time>
   <energy>
    <i name="e_fr_energy">    -71.98354565 </i>
    <i name="e_wo_entrp">    -71.98412545 </i>
    <i name="e_0_energy">    -71.98373892 </i>
   </energy>
  </scstep>
  <scstep>
   <time name="diag">    0.04    0.04</time>
   <time name="diis">    0.29    0.29</time>
   <time name="orth">    0.00    0.00</time>
   <time name="total">    0.81    0.84</time>
   <energy>
    <i name="e_fr_energy">    -71.98934363 </i>
    <i name="e_wo_entrp">    -71.98992342 </i>
    <i name="e_0_energy">    -71.98953689 </i>
   </energy>
  </scstep>
  <scstep>
   <time name="diag">    0.04    0.04</time>
   <time name="diis">    0.29    0.29</time>
   <time name="orth">    0.00    0.00</time>
   <time name="total">    0.81    0.84</time>
   <energy>
    <i name="e_fr_energy">    -71.99549066 </i>
    <i name="e_wo_entrp">    -71.99549066 </i>
    <i name="e_0_energy">    -71.99549066 </i>
   </energy>
  </scstep>
  <scstep>
   <time name="diag">    0.04    0.04</time>
   <time name="diis">    0.29    0.29</time>
   <time name="orth">    0.00    0.00</time>
   <time name="total">    0.82    0.84</time>
   <energy>
    <i name="e_fr_energy">    -71.99962202 </i>
    <i name="e_wo_entrp">    -71.99962202 </i>
    <i name="e_0_energy">    -71.99962202 </i>
   </energy>
  </scstep>
  <scstep>
   <time name="diag">    0.04    0.04</time>
   <time name="diis">    0.28    0.29</time>
   <time name="orth">    0.00    0.00</time>
   <time name="total">    0.82    0.84</time>
   <energy>
    <i name="e_fr_energy">    -71.99995076 </i>
    <i name="e_wo_entrp">    -71.99995076 </i>
    <i name="e_0_energy">    -71.99995076 </i>
   </energy>
  </scstep>
  <scstep>
   <time name="diag">    0.04    0.04</time>
   <time name="diis">    0.29    0.29</time>
   <time name="orth">    0.00    0.00</time>
   <time name="total">    0.82    0.85</time>
   <energy>
    <i name="e_fr_energy">    -72.00023837 </i>
    <i name="e_wo_entrp">    -72.00081816 </i>
    <i name="e_0_energy">    -72.00043163 </i>
   </energy>
  </scstep>
  <scstep>
   <time name="diag">    0.04    0.04</time>
   <time name="diis">    0.29    0.29</time>
   <time name="orth">    0.00    0.00</time>
   <time name="total">    0.82    0.84</time>
   <energy>
    <i name="e_fr_energy">    -72.00040357 </i>
    <i name="e_wo_entrp">    -72.00098336 </i>
    <i name="e_0_energy">    -72.00059683 </i>
   </energy>
  </scstep>
  <scstep>
   <time name="diag">    0.04    0.04</time>
   <time name="diis">    0.29    0.29</time>
   <time name="orth">    0.00    0.00</time>
   <time name="total">    0.82    0.84</time>
   <energy>
    <i name="e_fr_energy">    -72.00126387 </i>
    <i name="e_wo_entrp">    -72.00126387 </i>
    <i name="e_0_energy">    -72.00126387 </i>
   </energy>
  </scstep>
  <scstep>
   <time name="diag">    0.04    0.04</time>
   <time name="diis">    0.20    0.20</time>
   <time name="orth">    0.00    0.00</time>
   <time name="total">    0.74    0.76</time>
   <energy>
    <i name="e_fr_energy">    -72.00071972 </i>
    <i name="e_wo_entrp">    -72.00129951 </i>
    <i name="e_0_energy">    -72.00091299 </i>
   </energy>
  </scstep>
  <scstep>
   <time name="diag">    0.04    0.04</time>
   <time name="diis">    0.24    0.24</time>
   <time name="orth">    0.00    0.00</time>
   <time name="total">    0.78    0.80</time>
   <energy>
    <i name="e_fr_energy">    -72.00076625 </i>
    <i name="e_wo_entrp">    -72.00134604 </i>
    <i name="e_0_energy">    -72.00095951 </i>
   </energy>
  </scstep>
  <scstep>
   <time name="diag">    0.04    0.04</time>
   <time name="diis">    0.20    0.20</time>
   <time name="orth">    0.00    0.00</time>
   <time name="total">    0.74    0.76</time>
   <energy>
    <i name="e_fr_energy">    -72.00135397 </i>
    <i name="e_wo_entrp">    -72.00135397 </i>
    <i name="e_0_energy">    -72.00135397 </i>
   </energy>
  </scstep>
  <scstep>
   <time name="diag">    0.04    0.04</time>
   <time name="diis">    0.19    0.19</time>
   <time name="orth">    0.00    0.00</time>
   <time name="total">    0.74    0.76</time>
   <energy>
    <i name="e_fr_energy">    -72.00078081 </i>
    <i name="e_wo_entrp">    -72.00136060 </i>
    <i name="e_0_energy">    -72.00097407 </i>
   </energy>
  </scstep>
  <scstep>
   <time name="diag">    0.04    0.04</time>
   <time name="diis">    0.17    0.17</time>
   <time name="orth">    0.00    0.00</time>
   <time name="total">    0.72    0.74</time>
   <energy>
    <i name="e_fr_energy">    -72.00136327 </i>
    <i name="e_wo_entrp">    -72.00136327 </i>
    <i name="e_0_energy">    -72.00136327 </i>
   </energy>
  </scstep>
  <scstep>
   <time name="diag">    0.04    0.04</time>
   <time name="diis">    0.19    0.19</time>
   <time name="orth">    0.00    0.00</time>
   <time name="total">    0.74    0.76</time>
   <energy>
    <i name="e_fr_energy">    -72.00078467 </i>
    <i name="e_wo_entrp">    -72.00136446 </i>
    <i name="e_0_energy">    -72.00097793 </i>
   </energy>
  </scstep>
  <scstep>
   <time name="diag">    0.04    0.04</time>
   <time name="diis">    0.16    0.16</time>
   <time name="orth">    0.00    0.00</time>
   <time name="total">    0.63    0.65</time>
   <energy>
    <i name="alphaZ">      0.46798175 </i>
    <i name="ewald">   1980.40165735 </i>
    <i name="hartreedc">  -2906.34600220 </i>
    <i name="XCdc">    105.95454428 </i>
    <i name="pawpsdc">   2163.69182499 </i>
    <i name="pawaedc">  -2168.52611239 </i>
    <i name="eentropy">      0.00057979 </i>
    <i name="bandstr">   -368.24641145 </i>
    <i name="atom">   1120.60115284 </i>
    <i name="e_fr_energy">    -72.00078504 </i>
    <i name="e_wo_entrp">    -72.00136483 </i>
    <i name="e_0_energy">    -72.00097830 </i>
   </energy>
  </scstep>
  <structure>
   <crystal>
    <varray name="basis" >
     <v>      16.32993162      -8.16496581      -8.16496581 </v>
     <v>       0.00000000      14.14213562     -14.14213562 </v>
     <v>      11.54700538      11.54700538      11.54700538 </v>
    </varray>
    <i name="volume">   8000.00000000 </i>
    <varray name="rec_basis" >
     <v>       0.04082483      -0.02041241      -0.02041241 </v>
     <v>       0.00000000       0.03535534      -0.03535534 </v>
     <v>       0.02886751       0.02886751       0.02886751 </v>
    </varray>
   </crystal>
   <varray name="positions" >
    <v>       0.42021131       0.56122673       0.56107735 </v>
    <v>       0.41403687       0.53576714       0.62768450 </v>
    <v>       0.41492089       0.63244204       0.56734816 </v>
    <v>       0.45017115       0.65110466       0.63345823 </v>
    <v>       0.45486520       0.58372451       0.67152864 </v>
    <v>       0.43259547       0.48405225       0.62743150 </v>
    <v>       0.36072340       0.53538810       0.64312064 </v>
    <v>       0.43801797       0.65456112       0.52266221 </v>
    <v>       0.36152088       0.64726021       0.56870206 </v>
    <v>       0.50011209       0.67203017       0.62426361 </v>
    <v>       0.42139937       0.68871694       0.66135372 </v>
    <v>       0.50706647       0.56683786       0.67465549 </v>
    <v>       0.43514363       0.58685237       0.72272691 </v>
   </varray>
  </structure>
  <varray name="forces" >
   <v>       0.00512602      -0.00301488      -0.00272050 </v>
   <v>      -0.00176254       0.00095514      -0.00098986 </v>
   <v>       0.00015472      -0.00098784      -0.00045952 </v>
   <v>       0.00010587       0.00092104       0.00070384 </v>
   <v>       0.00229730      -0.00333393      -0.00175983 </v>
   <v>      -0.00320842       0.00277117       0.00411587 </v>
   <v>      -0.00312735       0.00298761      -0.00822222 </v>
   <v>      -0.00487075       0.00576505       0.00135223 </v>
   <v>       0.00127856      -0.00088382       0.00983647 </v>
   <v>       0.00069430      -0.00147724      -0.00148391 </v>
   <v>       0.00179281      -0.00084041      -0.00047238 </v>
   <v>      -0.00118909      -0.00208393      -0.00055653 </v>
   <v>       0.00270857      -0.00077797       0.00065634 </v>
  </varray>
  <varray name="stress" >
   <v>      -0.33447885      -0.00068000       0.01825058 </v>
   <v>      -0.00068000      -0.31169436      -0.00434240 </v>
   <v>       0.01825058      -0.00434240      -0.29104604 </v>
  </varray>
  <energy>
   <i name="e_fr_energy">    -72.10952344 </i>
   <i name="e_wo_entrp">    -72.10971670 </i>
   <i name="e_0_energy">      0.00057979 </i>
  </energy>
  <time name="totalsc">   23.63   24.60</time>
  <eigenvalues>
   <array>
    <dimension dim="1">band</dimension>
    <dimension dim="2">kpoint</dimension>
    <dimension dim="3">spin</dimension>
    <field>eigene</field>
    <field>occ</field>
    <set>
     <set comment="spin 1">
      <set comment="kpoint 1">
       <r>  -25.7694    1.0000 </r>
       <r>  -19.1865    1.0000 </r>
       <r>  -18.0635    1.0000 </r>
       <r>  -14.5552    1.0000 </r>
       <r>  -14.4186    1.0000 </r>
       <r>  -12.1376    1.0000 </r>
       <r>  -11.7852    1.0000 </r>
       <r>  -10.9336    1.0000 </r>
       <r>   -9.9219    1.0000 </r>
       <r>   -9.5696    1.0000 </r>
       <r>   -8.5294    1.0000 </r>
       <r>   -8.3489    1.0000 </r>
       <r>   -7.6794    1.0000 </r>
       <r>   -7.5183    1.0000 </r>
       <r>   -5.7063    1.0000 </r>
       <r>   -0.5589    0.0000 </r>
       <r>   -0.0699    0.0000 </r>
       <r>    0.0040    0.0000 </r>
       <r>    0.0930    0.0000 </r>
       <r>    0.1259    0.0000 </r>
       <r>    0.4155    0.0000 </r>
       <r>    1.2930    0.0000 </r>
      </set>
     </set>
    </set>
   </array>
  </eigenvalues>
  <separator name="orbital magnetization" >
   <v name="MAGDIPOLOUT">      0.00000000      0.00000000      0.00000000</v>
  </separator>
 </calculation>
 <structure name="finalpos" >
  <crystal>
   <varray name="basis" >
    <v>      16.32993162      -8.16496581      -8.16496581 </v>
    <v>       0.00000000      14.14213562     -14.14213562 </v>
    <v>      11.54700538      11.54700538      11.54700538 </v>
   </varray>
   <i name="volume">   8000.00000000 </i>
   <varray name="rec_basis" >
    <v>       0.04082483      -0.02041241      -0.02041241 </v>
    <v>       0.00000000       0.03535534      -0.03535534 </v>
    <v>       0.02886751       0.02886751       0.02886751 </v>
   </varray>
  </crystal>
  <varray name="positions" >
   <v>       0.42021131       0.56122673       0.56107735 </v>
   <v>       0.41403687       0.53576714       0.62768450 </v>
   <v>       0.41492089       0.63244204       0.56734816 </v>
   <v>       0.45017115       0.65110466       0.63345823 </v>
   <v>       0.45486520       0.58372451       0.67152864 </v>
   <v>       0.43259547       0.48405225       0.62743150 </v>
   <v>       0.36072340       0.53538810       0.64312064 </v>
   <v>       0.43801797       0.65456112       0.52266221 </v>
   <v>       0.36152088       0.64726021       0.56870206 </v>
   <v>       0.50011209       0.67203017       0.62426361 </v>
   <v>       0.42139937       0.68871694       0.66135372 </v>
   <v>       0.50706647       0.56683786       0.67465549 </v>
   <v>       0.43514363       0.58685237       0.72272691 </v>
  </varray>
  <varray name="selective"  type="logical" >
   <v type="logical" >  T  T  T </v>
   <v type="logical" >  T  T  T </v>
   <v type="logical" >  T  T  T </v>
   <v type="logical" >  T  T  T </v>
   <v type="logical" >  T  T  T </v>
   <v type="logical" >  T  T  T </v>
   <v type="logical" >  T  T  T </v>
   <v type="logical" >  T  T  T </v>
   <v type="logical" >  T  T  T </v>
   <v type="logical" >  T  T  T </v>
   <v type="logical" >  T  T  T </v>
   <v type="logical" >  T  T  T </v>
   <v type="logical" >  T  T  T </v>
  </varray>
  <nose>
   <v>      -3.00000000       0.00000000       0.00010000       0.00010000 </v>
  </nose>
 </structure>
</modeling>
