       N       E                     dE             d eps       ncg     rms          rms(c)
DAV:   1     0.494375400526E+02    0.49438E+02   -0.83123E+02    44   0.229E+02

DAV:   2     0.690024270854E+01   -0.42537E+02   -0.39881E+02    68   0.456E+01

DAV:   3    -0.121890476700E+02   -0.19089E+02   -0.19079E+02    48   0.493E+01

DAV:   4    -0.133342822460E+02   -0.11452E+01   -0.11451E+01    39   0.185E+01

DAV:   5    -0.133686625781E+02   -0.34380E-01   -0.34380E-01    71   0.312E+00    0.114E+01
RMM:   6    -0.113000200519E+02    0.20686E+01   -0.29228E+01    36   0.303E+01    0.519E+00
RMM:   7    -0.146655469614E+02   -0.33655E+01   -0.37806E+00    36   0.109E+01    0.304E+00
RMM:   8    -0.154898594922E+02   -0.82431E+00   -0.41586E-01    36   0.359E+00    0.169E+00
RMM:   9    -0.165980132350E+02   -0.11082E+01   -0.33629E-01    36   0.322E+00    0.529E-01
RMM:  10    -0.168546815907E+02   -0.25667E+00   -0.43735E-02    36   0.143E+00    0.393E-01
RMM:  11    -0.171695543855E+02   -0.31487E+00   -0.13327E-02    36   0.747E-01    0.277E-01
RMM:  12    -0.175508256221E+02   -0.38127E+00   -0.20297E-02    36   0.998E-01    0.156E-01
RMM:  13    -0.176938014300E+02   -0.14298E+00   -0.85879E-03    36   0.669E-01    0.981E-02
RMM:  14    -0.178037602482E+02   -0.10996E+00   -0.69065E-03    36   0.596E-01    0.602E-02
RMM:  15    -0.178428726944E+02   -0.39112E-01   -0.17037E-03    36   0.246E-01    0.299E-02
RMM:  16    -0.178740261498E+02   -0.31153E-01   -0.11566E-03    36   0.213E-01    0.244E-02
RMM:  17    -0.178798147790E+02   -0.57886E-02   -0.23067E-04    36   0.934E-02    0.100E-02
RMM:  18    -0.178829938110E+02   -0.31790E-02   -0.17340E-04    36   0.763E-02    0.426E-03
RMM:  19    -0.178833605283E+02   -0.36672E-03   -0.10675E-04    36   0.516E-02    0.381E-03
RMM:  20    -0.178838513874E+02   -0.49086E-03   -0.33507E-05    36   0.304E-02    0.227E-03
RMM:  21    -0.178844832240E+02   -0.63184E-03   -0.25014E-05    35   0.293E-02    0.210E-03
RMM:  22    -0.178846847010E+02   -0.20148E-03   -0.60057E-06    33   0.161E-02    0.140E-03
RMM:  23    -0.178848427830E+02   -0.15808E-03   -0.11346E-06    30   0.813E-03    0.561E-04
RMM:  24    -0.178849852768E+02   -0.14249E-03   -0.10484E-06    30   0.835E-03    0.678E-04
RMM:  25    -0.178849983108E+02   -0.13034E-04   -0.30653E-07    29   0.496E-03    0.327E-04
RMM:  26    -0.178850401101E+02   -0.41799E-04   -0.30178E-07    29   0.497E-03    0.331E-04
RMM:  27    -0.178850417294E+02   -0.16193E-05   -0.20659E-07    29   0.450E-03    0.177E-04
RMM:  28    -0.178850348197E+02    0.69097E-05   -0.12385E-07    29   0.344E-03    0.768E-05
RMM:  29    -0.178850307259E+02    0.40937E-05   -0.60884E-08    28   0.258E-03    0.550E-05
RMM:  30    -0.178850296174E+02    0.11086E-05   -0.62614E-09    23   0.109E-03    0.212E-05
RMM:  31    -0.178850275731E+02    0.20443E-05   -0.32974E-08    27   0.215E-03    0.502E-05
RMM:  32    -0.178850270394E+02    0.53362E-06    0.00000E+00    21   0.942E-04

   1 F= -.17885027E+02 E0= -.17885027E+02  d E =-.178850E+02  mag=     1.0000
       N       E                     dE             d eps       ncg     rms          rms(c)
DAV:   1    -0.178753411932E+02    0.96864E-02   -0.57663E+00    36   0.190E+01    0.694E-01
RMM:   2    -0.179767832754E+02   -0.10144E+00   -0.21658E-01    36   0.303E+00    0.331E-01
RMM:   3    -0.179925692793E+02   -0.15786E-01   -0.59387E-03    36   0.553E-01    0.145E-01
RMM:   4    -0.179941947531E+02   -0.16255E-02   -0.25615E-03    36   0.331E-01    0.517E-02
RMM:   5    -0.179962429087E+02   -0.20482E-02   -0.84368E-04    36   0.187E-01    0.226E-02
RMM:   6    -0.179972628683E+02   -0.10200E-02   -0.16634E-04    36   0.966E-02    0.104E-02
RMM:   7    -0.179979566634E+02   -0.69380E-03   -0.67993E-05    36   0.662E-02    0.454E-03
RMM:   8    -0.179982026892E+02   -0.24603E-03   -0.13844E-05    35   0.262E-02    0.334E-03
RMM:   9    -0.179988758913E+02   -0.67320E-03   -0.31165E-05    36   0.333E-02    0.249E-03
RMM:  10    -0.179991614017E+02   -0.28551E-03   -0.14866E-05    35   0.229E-02    0.184E-03
RMM:  11    -0.179992955383E+02   -0.13414E-03   -0.64749E-06    35   0.154E-02    0.158E-03
RMM:  12    -0.179994357386E+02   -0.14020E-03   -0.11959E-05    35   0.179E-02    0.152E-03
RMM:  13    -0.179994470331E+02   -0.11295E-04   -0.16268E-06    30   0.623E-03    0.503E-04
RMM:  14    -0.179994589866E+02   -0.11954E-04   -0.58963E-07    30   0.512E-03    0.262E-04
RMM:  15    -0.179994717308E+02   -0.12744E-04   -0.39962E-07    29   0.482E-03    0.228E-04
RMM:  16    -0.179994805665E+02   -0.88356E-05   -0.44423E-07    29   0.465E-03    0.224E-04
RMM:  17    -0.179994804703E+02    0.96150E-07   -0.12528E-07    28   0.232E-03

   2 F= -.17999480E+02 E0= -.17999480E+02  d E =-.114453E+00  mag=     1.0000
       N       E                     dE             d eps       ncg     rms          rms(c)
DAV:   1    -0.176498160031E+02    0.34966E+00   -0.15063E+01    36   0.309E+01    0.109E+00
RMM:   2    -0.180457634314E+02   -0.39595E+00   -0.87067E-01    36   0.594E+00    0.525E-01
RMM:   3    -0.180775482585E+02   -0.31785E-01   -0.18498E-02    36   0.911E-01    0.211E-01
RMM:   4    -0.180805496379E+02   -0.30014E-02   -0.53906E-03    36   0.495E-01    0.876E-02
RMM:   5    -0.180838963328E+02   -0.33467E-02   -0.20188E-03    36   0.273E-01    0.422E-02
RMM:   6    -0.180858485098E+02   -0.19522E-02   -0.45734E-04    36   0.134E-01    0.231E-02
RMM:   7    -0.180877879074E+02   -0.19394E-02   -0.16569E-04    36   0.865E-02    0.728E-03
RMM:   8    -0.180886496766E+02   -0.86177E-03   -0.51689E-05    36   0.432E-02    0.507E-03
RMM:   9    -0.180894486973E+02   -0.79902E-03   -0.44471E-05    36   0.350E-02    0.314E-03
RMM:  10    -0.180905714669E+02   -0.11228E-02   -0.10882E-04    36   0.504E-02    0.244E-03
RMM:  11    -0.180907623708E+02   -0.19090E-03   -0.17753E-05    35   0.201E-02    0.155E-03
RMM:  12    -0.180910195781E+02   -0.25721E-03   -0.14010E-05    35   0.169E-02    0.159E-03
RMM:  13    -0.180910971450E+02   -0.77567E-04   -0.85324E-06    32   0.113E-02    0.925E-04
RMM:  14    -0.180911371287E+02   -0.39984E-04   -0.24558E-06    31   0.705E-03    0.587E-04
RMM:  15    -0.180911903840E+02   -0.53255E-04   -0.67789E-07    29   0.657E-03    0.618E-04
RMM:  16    -0.180912050634E+02   -0.14679E-04   -0.43252E-07    29   0.508E-03    0.387E-04
RMM:  17    -0.180912091105E+02   -0.40472E-05   -0.13313E-07    29   0.273E-03    0.161E-04
RMM:  18    -0.180912093628E+02   -0.25224E-06   -0.16576E-07    29   0.395E-03

   3 F= -.18091209E+02 E0= -.18091209E+02  d E =-.206182E+00  mag=     1.0000
       N       E                     dE             d eps       ncg     rms          rms(c)
DAV:   1    -0.165626911190E+02    0.15285E+01   -0.59206E+01    36   0.609E+01    0.220E+00
RMM:   2    -0.180156648282E+02   -0.14530E+01   -0.35038E+00    36   0.121E+01    0.996E-01
RMM:   3    -0.181188985104E+02   -0.10323E+00   -0.10388E-01    37   0.197E+00    0.461E-01
RMM:   4    -0.181261921570E+02   -0.72936E-02   -0.12924E-02    36   0.753E-01    0.223E-01
RMM:   5    -0.181345984200E+02   -0.84063E-02   -0.15015E-02    37   0.662E-01    0.956E-02
RMM:   6    -0.181385716275E+02   -0.39732E-02   -0.11321E-03    36   0.257E-01    0.626E-02
RMM:   7    -0.181451329999E+02   -0.65614E-02   -0.95503E-04    36   0.203E-01    0.204E-02
RMM:   8    -0.181471153855E+02   -0.19824E-02   -0.18576E-04    36   0.103E-01    0.167E-02
RMM:   9    -0.181492222739E+02   -0.21069E-02   -0.19242E-04    36   0.863E-02    0.881E-03
RMM:  10    -0.181530175052E+02   -0.37952E-02   -0.50893E-04    36   0.126E-01    0.138E-02
RMM:  11    -0.181537255686E+02   -0.70806E-03   -0.11786E-04    36   0.592E-02    0.491E-03
RMM:  12    -0.181545326705E+02   -0.80710E-03   -0.13357E-04    36   0.541E-02    0.651E-03
RMM:  13    -0.181547688208E+02   -0.23615E-03   -0.32054E-05    35   0.273E-02    0.375E-03
RMM:  14    -0.181550101090E+02   -0.24129E-03   -0.26136E-05    37   0.221E-02    0.263E-03
RMM:  15    -0.181551322567E+02   -0.12215E-03   -0.65360E-06    33   0.152E-02    0.108E-03
RMM:  16    -0.181552170992E+02   -0.84842E-04   -0.21078E-06    30   0.110E-02    0.638E-04
RMM:  17    -0.181553093078E+02   -0.92209E-04   -0.12244E-06    30   0.815E-03    0.466E-04
RMM:  18    -0.181553888726E+02   -0.79565E-04   -0.78931E-07    30   0.717E-03    0.263E-04
RMM:  19    -0.181554033830E+02   -0.14510E-04   -0.31223E-07    29   0.557E-03    0.126E-04
RMM:  20    -0.181554061450E+02   -0.27620E-05   -0.21010E-07    29   0.491E-03    0.133E-04
RMM:  21    -0.181554039957E+02    0.21493E-05   -0.17006E-07    29   0.454E-03    0.102E-04
RMM:  22    -0.181554026366E+02    0.13591E-05   -0.11929E-07    29   0.311E-03    0.284E-05
RMM:  23    -0.181554013046E+02    0.13320E-05   -0.72819E-08    27   0.210E-03    0.479E-05
RMM:  24    -0.181554005680E+02    0.73661E-06   -0.30012E-08    27   0.157E-03

   4 F= -.18155401E+02 E0= -.18155401E+02  d E =-.270374E+00  mag=     1.0000
       N       E                     dE             d eps       ncg     rms          rms(c)
DAV:   1    -0.181038732764E+02    0.51528E-01   -0.13106E+01    36   0.273E+01    0.112E+00
RMM:   2    -0.181112192420E+02   -0.73460E-02   -0.17874E-01    36   0.297E+00    0.489E-01
RMM:   3    -0.181446325480E+02   -0.33413E-01   -0.15441E-02    36   0.871E-01    0.224E-01
RMM:   4    -0.181482902914E+02   -0.36577E-02   -0.35812E-03    36   0.416E-01    0.936E-02
RMM:   5    -0.181511907703E+02   -0.29005E-02   -0.19192E-03    36   0.268E-01    0.302E-02
RMM:   6    -0.181528352923E+02   -0.16445E-02   -0.20794E-04    36   0.109E-01    0.189E-02
RMM:   7    -0.181550727887E+02   -0.22375E-02   -0.13668E-04    36   0.842E-02    0.829E-03
RMM:   8    -0.181560720302E+02   -0.99924E-03   -0.65773E-05    36   0.569E-02    0.499E-03
RMM:   9    -0.181570872310E+02   -0.10152E-02   -0.54623E-05    36   0.408E-02    0.329E-03
RMM:  10    -0.181581427435E+02   -0.10555E-02   -0.13556E-04    36   0.552E-02    0.289E-03
RMM:  11    -0.181583643096E+02   -0.22157E-03   -0.27006E-05    35   0.245E-02    0.174E-03
RMM:  12    -0.181586612209E+02   -0.29691E-03   -0.24286E-05    35   0.220E-02    0.196E-03
RMM:  13    -0.181586945856E+02   -0.33365E-04   -0.51891E-06    31   0.101E-02    0.137E-03
RMM:  14    -0.181587663225E+02   -0.71737E-04   -0.20182E-06    30   0.870E-03    0.706E-04
RMM:  15    -0.181588381268E+02   -0.71804E-04   -0.16533E-06    30   0.781E-03    0.607E-04
RMM:  16    -0.181588666227E+02   -0.28496E-04   -0.28115E-07    29   0.372E-03    0.261E-04
RMM:  17    -0.181588893907E+02   -0.22768E-04   -0.49447E-07    29   0.562E-03    0.297E-04
RMM:  18    -0.181588886486E+02    0.74208E-06   -0.22257E-07    29   0.413E-03

   5 F= -.18158889E+02 E0= -.18158889E+02  d E =-.273862E+00  mag=     1.0000
       N       E                     dE             d eps       ncg     rms          rms(c)
DAV:   1    -0.181484620803E+02    0.10427E-01   -0.35318E+00    36   0.142E+01    0.577E-01
RMM:   2    -0.181450323410E+02    0.34297E-02   -0.43352E-02    36   0.152E+00    0.266E-01
RMM:   3    -0.181557982001E+02   -0.10766E-01   -0.34898E-03    36   0.465E-01    0.119E-01
RMM:   4    -0.181568873240E+02   -0.10891E-02   -0.22492E-03    36   0.302E-01    0.361E-02
RMM:   5    -0.181586135953E+02   -0.17263E-02   -0.53049E-04    36   0.148E-01    0.192E-02
RMM:   6    -0.181596908979E+02   -0.10773E-02   -0.12310E-04    36   0.824E-02    0.991E-03
RMM:   7    -0.181602858083E+02   -0.59491E-03   -0.49505E-05    36   0.515E-02    0.548E-03
RMM:   8    -0.181604753380E+02   -0.18953E-03   -0.16293E-05    35   0.248E-02    0.362E-03
RMM:   9    -0.181612853699E+02   -0.81003E-03   -0.48419E-05    36   0.368E-02    0.347E-03
RMM:  10    -0.181613996350E+02   -0.11427E-03   -0.71982E-06    33   0.144E-02    0.250E-03
RMM:  11    -0.181615963487E+02   -0.19671E-03   -0.13546E-05    36   0.197E-02    0.309E-03
RMM:  12    -0.181617303538E+02   -0.13401E-03   -0.15466E-05    35   0.184E-02    0.212E-03
RMM:  13    -0.181617674271E+02   -0.37073E-04   -0.48083E-06    33   0.977E-03    0.526E-04
RMM:  14    -0.181617936017E+02   -0.26175E-04   -0.90155E-07    30   0.710E-03    0.358E-04
RMM:  15    -0.181618367741E+02   -0.43172E-04   -0.11481E-06    30   0.741E-03    0.356E-04
RMM:  16    -0.181618542761E+02   -0.17502E-04   -0.55462E-07    30   0.530E-03    0.180E-04
RMM:  17    -0.181618573193E+02   -0.30433E-05   -0.18106E-07    29   0.375E-03    0.972E-05
RMM:  18    -0.181618558356E+02    0.14837E-05   -0.13399E-07    29   0.333E-03    0.513E-05
RMM:  19    -0.181618545740E+02    0.12616E-05   -0.71984E-08    28   0.270E-03    0.483E-05
RMM:  20    -0.181618537126E+02    0.86141E-06   -0.34875E-08    29   0.201E-03

   6 F= -.18161854E+02 E0= -.18161854E+02  d E =-.276827E+00  mag=     1.0000
       N       E                     dE             d eps       ncg     rms          rms(c)
DAV:   1    -0.181707484904E+02   -0.88939E-02   -0.20471E+00    36   0.110E+01    0.693E-01
RMM:   2    -0.181579769941E+02    0.12771E-01   -0.32743E-02    36   0.125E+00    0.332E-01
RMM:   3    -0.181550743416E+02    0.29027E-02   -0.23476E-02    36   0.826E-01    0.135E-01
RMM:   4    -0.181579660511E+02   -0.28917E-02   -0.12833E-03    36   0.279E-01    0.754E-02
RMM:   5    -0.181585493694E+02   -0.58332E-03   -0.71966E-04    36   0.158E-01    0.354E-02
RMM:   6    -0.181588044127E+02   -0.25504E-03   -0.17037E-04    36   0.104E-01    0.170E-02
RMM:   7    -0.181588590689E+02   -0.54656E-04   -0.45726E-05    36   0.462E-02    0.437E-03
RMM:   8    -0.181590031421E+02   -0.14407E-03   -0.13803E-05    36   0.271E-02    0.260E-03
RMM:   9    -0.181591075853E+02   -0.10444E-03   -0.40813E-06    33   0.150E-02    0.969E-04
RMM:  10    -0.181591833798E+02   -0.75795E-04   -0.21077E-06    30   0.899E-03    0.679E-04
RMM:  11    -0.181592454698E+02   -0.62090E-04   -0.25918E-06    31   0.851E-03    0.417E-04
RMM:  12    -0.181592752932E+02   -0.29823E-04   -0.21936E-06    30   0.822E-03    0.270E-04
RMM:  13    -0.181592840519E+02   -0.87588E-05   -0.10420E-06    30   0.639E-03    0.169E-04
RMM:  14    -0.181592922094E+02   -0.81574E-05   -0.64332E-07    30   0.558E-03    0.114E-04
RMM:  15    -0.181592944536E+02   -0.22442E-05   -0.21721E-07    29   0.403E-03    0.876E-05
RMM:  16    -0.181592926873E+02    0.17663E-05   -0.21282E-07    29   0.383E-03    0.526E-05
RMM:  17    -0.181592916978E+02    0.98950E-06   -0.74762E-08    27   0.211E-03

   7 F= -.18159292E+02 E0= -.18159292E+02  d E =0.256201E-02  mag=     1.0000
       N       E                     dE             d eps       ncg     rms          rms(c)
DAV:   1    -0.181786550196E+02   -0.19362E-01   -0.56912E-01    40   0.581E+00    0.351E-01
RMM:   2    -0.181754447439E+02    0.32103E-02   -0.80448E-03    36   0.660E-01    0.177E-01
RMM:   3    -0.181745705627E+02    0.87418E-03   -0.63805E-03    36   0.461E-01    0.709E-02
RMM:   4    -0.181754190756E+02   -0.84851E-03   -0.54663E-04    36   0.186E-01    0.392E-02
RMM:   5    -0.181755844967E+02   -0.16542E-03   -0.16742E-04    36   0.770E-02    0.194E-02
RMM:   6    -0.181757071721E+02   -0.12268E-03   -0.73332E-05    36   0.625E-02    0.968E-03
RMM:   7    -0.181757523120E+02   -0.45140E-04   -0.15848E-05    36   0.290E-02    0.224E-03
RMM:   8    -0.181757947333E+02   -0.42421E-04   -0.38754E-06    33   0.155E-02    0.124E-03
RMM:   9    -0.181758161988E+02   -0.21466E-04   -0.10215E-06    30   0.880E-03    0.482E-04
RMM:  10    -0.181758229753E+02   -0.67765E-05   -0.47260E-07    29   0.510E-03    0.327E-04
RMM:  11    -0.181758243559E+02   -0.13806E-05   -0.50445E-07    29   0.491E-03    0.234E-04
RMM:  12    -0.181758224699E+02    0.18860E-05   -0.81870E-07    30   0.569E-03    0.132E-04
RMM:  13    -0.181758218474E+02    0.62244E-06   -0.28487E-07    29   0.363E-03

   8 F= -.18175822E+02 E0= -.18175822E+02  d E =-.139681E-01  mag=     1.0000
       N       E                     dE             d eps       ncg     rms          rms(c)
DAV:   1    -0.181764681545E+02   -0.64568E-03   -0.22390E-01    40   0.369E+00    0.141E-01
RMM:   2    -0.181761137366E+02    0.35442E-03   -0.35976E-03    36   0.438E-01    0.714E-02
RMM:   3    -0.181766175761E+02   -0.50384E-03   -0.34488E-04    36   0.169E-01    0.381E-02
RMM:   4    -0.181766343490E+02   -0.16773E-04   -0.20773E-04    36   0.956E-02    0.934E-03
RMM:   5    -0.181768937514E+02   -0.25940E-03   -0.38349E-05    36   0.460E-02    0.418E-03
RMM:   6    -0.181770542237E+02   -0.16047E-03   -0.65176E-06    33   0.220E-02    0.242E-03
RMM:   7    -0.181772139436E+02   -0.15972E-03   -0.32996E-06    32   0.147E-02    0.933E-04
RMM:   8    -0.181772545950E+02   -0.40651E-04   -0.14463E-06    30   0.897E-03    0.702E-04
RMM:   9    -0.181772988688E+02   -0.44274E-04   -0.15103E-06    30   0.859E-03    0.441E-04
RMM:  10    -0.181773162000E+02   -0.17331E-04   -0.13182E-06    30   0.751E-03    0.403E-04
RMM:  11    -0.181773184065E+02   -0.22065E-05   -0.40510E-07    29   0.494E-03    0.267E-04
RMM:  12    -0.181773237054E+02   -0.52990E-05   -0.16212E-06    30   0.795E-03    0.272E-04
RMM:  13    -0.181773263286E+02   -0.26231E-05   -0.20585E-07    29   0.324E-03    0.166E-04
RMM:  14    -0.181773281311E+02   -0.18026E-05   -0.10617E-07    26   0.235E-03    0.909E-05
RMM:  15    -0.181773283410E+02   -0.20988E-06   -0.31706E-07    29   0.480E-03

   9 F= -.18177328E+02 E0= -.18177328E+02  d E =-.150649E-02  mag=     1.0000
       N       E                     dE             d eps       ncg     rms          rms(c)
DAV:   1    -0.181773283773E+02   -0.24618E-06   -0.28496E-07    47   0.369E-03    0.126E-04
RMM:   2    -0.181773281558E+02    0.22151E-06   -0.89261E-09    22   0.121E-03

  10 F= -.18177328E+02 E0= -.18177328E+02  d E =-.150631E-02  mag=     1.0000
       N       E                     dE             d eps       ncg     rms          rms(c)
DAV:   1    -0.181780643777E+02   -0.73600E-03   -0.27007E-02    38   0.125E+00    0.493E-02
RMM:   2    -0.181779019415E+02    0.16244E-03   -0.40102E-04    36   0.149E-01    0.222E-02
RMM:   3    -0.181780445864E+02   -0.14264E-03   -0.69965E-05    36   0.748E-02    0.978E-03
RMM:   4    -0.181780415956E+02    0.29907E-05   -0.17348E-05    35   0.262E-02    0.333E-03
RMM:   5    -0.181780955682E+02   -0.53973E-04   -0.68043E-06    35   0.167E-02    0.141E-03
RMM:   6    -0.181781480376E+02   -0.52469E-04   -0.10289E-06    30   0.894E-03    0.823E-04
RMM:   7    -0.181781844291E+02   -0.36391E-04   -0.79266E-07    30   0.845E-03    0.336E-04
RMM:   8    -0.181781835242E+02    0.90485E-06   -0.27145E-07    29   0.460E-03

  11 F= -.18178184E+02 E0= -.18178184E+02  d E =-.855368E-03  mag=     1.0000
       N       E                     dE             d eps       ncg     rms          rms(c)
DAV:   1    -0.181791188017E+02   -0.93437E-03   -0.24332E-01    36   0.374E+00    0.148E-01
RMM:   2    -0.181786966270E+02    0.42217E-03   -0.34802E-03    36   0.421E-01    0.667E-02
RMM:   3    -0.181793049853E+02   -0.60836E-03   -0.40106E-04    36   0.177E-01    0.298E-02
RMM:   4    -0.181793632175E+02   -0.58232E-04   -0.14661E-04    36   0.797E-02    0.101E-02
RMM:   5    -0.181796266225E+02   -0.26341E-03   -0.56710E-05    36   0.474E-02    0.422E-03
RMM:   6    -0.181798136076E+02   -0.18699E-03   -0.91565E-06    33   0.255E-02    0.250E-03
RMM:   7    -0.181800166192E+02   -0.20301E-03   -0.48418E-06    33   0.168E-02    0.107E-03
RMM:   8    -0.181800791638E+02   -0.62545E-04   -0.21479E-06    30   0.967E-03    0.794E-04
RMM:   9    -0.181801642867E+02   -0.85123E-04   -0.35534E-06    32   0.106E-02    0.537E-04
RMM:  10    -0.181801820698E+02   -0.17783E-04   -0.13847E-06    30   0.678E-03    0.489E-04
RMM:  11    -0.181801858856E+02   -0.38157E-05   -0.71516E-07    30   0.561E-03    0.268E-04
RMM:  12    -0.181801920276E+02   -0.61421E-05   -0.15980E-06    30   0.844E-03    0.240E-04
RMM:  13    -0.181801966911E+02   -0.46635E-05   -0.25233E-07    29   0.336E-03    0.144E-04
RMM:  14    -0.181802001652E+02   -0.34741E-05   -0.19321E-07    28   0.333E-03    0.974E-05
RMM:  15    -0.181801995052E+02    0.65997E-06   -0.37419E-07    29   0.501E-03

  12 F= -.18180200E+02 E0= -.18180200E+02  d E =-.287135E-02  mag=     1.0000
       N       E                     dE             d eps       ncg     rms          rms(c)
DAV:   1    -0.181776880234E+02    0.25121E-02   -0.97713E-01    39   0.749E+00    0.298E-01
RMM:   2    -0.181764332547E+02    0.12548E-02   -0.13190E-02    36   0.825E-01    0.133E-01
RMM:   3    -0.181794095885E+02   -0.29763E-02   -0.13340E-03    36   0.305E-01    0.596E-02
RMM:   4    -0.181798295299E+02   -0.41994E-03   -0.49409E-04    36   0.152E-01    0.212E-02
RMM:   5    -0.181805637318E+02   -0.73420E-03   -0.20407E-04    36   0.920E-02    0.833E-03
RMM:   6    -0.181809668079E+02   -0.40308E-03   -0.31559E-05    35   0.464E-02    0.487E-03
RMM:   7    -0.181813734865E+02   -0.40668E-03   -0.17346E-05    35   0.310E-02    0.209E-03
RMM:   8    -0.181815534830E+02   -0.18000E-03   -0.81695E-06    33   0.189E-02    0.145E-03
RMM:   9    -0.181817821504E+02   -0.22867E-03   -0.10306E-05    35   0.171E-02    0.914E-04
RMM:  10    -0.181818625298E+02   -0.80379E-04   -0.50595E-06    32   0.111E-02    0.769E-04
RMM:  11    -0.181819217041E+02   -0.59174E-04   -0.37009E-06    30   0.102E-02    0.428E-04
RMM:  12    -0.181819383421E+02   -0.16638E-04   -0.35923E-06    32   0.106E-02    0.321E-04
RMM:  13    -0.181819524590E+02   -0.14117E-04   -0.79354E-07    30   0.596E-03    0.201E-04
RMM:  14    -0.181819730816E+02   -0.20623E-04   -0.10807E-06    30   0.809E-03    0.204E-04
RMM:  15    -0.181819749058E+02   -0.18243E-05   -0.37164E-07    29   0.519E-03    0.133E-04
RMM:  16    -0.181819734353E+02    0.14705E-05   -0.19565E-07    29   0.343E-03    0.107E-04
RMM:  17    -0.181819720638E+02    0.13715E-05   -0.17513E-07    29   0.429E-03    0.938E-05
RMM:  18    -0.181819714300E+02    0.63383E-06   -0.56553E-08    28   0.227E-03

  13 F= -.18181971E+02 E0= -.18181971E+02  d E =-.464327E-02  mag=     1.0000
       N       E                     dE             d eps       ncg     rms          rms(c)
DAV:   1    -0.181824495185E+02   -0.47745E-03   -0.26670E-02    40   0.125E+00    0.534E-02
RMM:   2    -0.181823127475E+02    0.13677E-03   -0.39651E-04    36   0.149E-01    0.252E-02
RMM:   3    -0.181824089044E+02   -0.96157E-04   -0.80896E-05    36   0.781E-02    0.122E-02
RMM:   4    -0.181824100385E+02   -0.11341E-05   -0.31566E-05    36   0.367E-02    0.394E-03
RMM:   5    -0.181824651071E+02   -0.55069E-04   -0.61141E-06    33   0.191E-02    0.232E-03
RMM:   6    -0.181825244939E+02   -0.59387E-04   -0.30199E-06    31   0.154E-02    0.105E-03
RMM:   7    -0.181825415939E+02   -0.17100E-04   -0.90938E-07    30   0.941E-03    0.541E-04
RMM:   8    -0.181825378824E+02    0.37116E-05   -0.52323E-07    29   0.688E-03    0.364E-04
RMM:   9    -0.181825368487E+02    0.10337E-05   -0.36799E-07    29   0.607E-03    0.330E-04
RMM:  10    -0.181825373307E+02   -0.48197E-06   -0.18237E-07    29   0.380E-03

  14 F= -.18182537E+02 E0= -.18182537E+02  d E =-.565901E-03  mag=     1.0000
       N       E                     dE             d eps       ncg     rms          rms(c)
DAV:   1    -0.181826657869E+02   -0.12894E-03   -0.66518E-02    40   0.198E+00    0.840E-02
RMM:   2    -0.181825120601E+02    0.15373E-03   -0.99995E-04    36   0.240E-01    0.399E-02
RMM:   3    -0.181826181057E+02   -0.10605E-03   -0.20123E-04    36   0.128E-01    0.195E-02
RMM:   4    -0.181826064535E+02    0.11652E-04   -0.82241E-05    36   0.607E-02    0.637E-03
RMM:   5    -0.181827153482E+02   -0.10889E-03   -0.15026E-05    35   0.306E-02    0.380E-03
RMM:   6    -0.181828115738E+02   -0.96226E-04   -0.80779E-06    35   0.252E-02    0.182E-03
RMM:   7    -0.181828590894E+02   -0.47516E-04   -0.21170E-06    31   0.137E-02    0.902E-04
RMM:   8    -0.181828814826E+02   -0.22393E-04   -0.12975E-06    30   0.889E-03    0.646E-04
RMM:   9    -0.181828915309E+02   -0.10048E-04   -0.71665E-07    30   0.761E-03    0.516E-04
RMM:  10    -0.181828919954E+02   -0.46444E-06   -0.28192E-07    29   0.482E-03

  15 F= -.18182892E+02 E0= -.18182892E+02  d E =-.920565E-03  mag=     1.0000
