 vasp.5.3.2 13Sep12 (build Oct  1 2014 13:46:58) complex                        
  
 executed on             LinuxIFC date 2015.11.22  18:50:13
 running on   20 total cores
 distrk:  each k-point on   20 cores,    1 groups
 distr:  one band on NCORES_PER_BAND=  20 cores,    1 groups


--------------------------------------------------------------------------------------------------------


 INCAR:
 POTCAR:    PAW_PBE O 08Apr2002                   
 POTCAR:    PAW_PBE H 15Jun2001                   
 POTCAR:    PAW_PBE C 08Apr2002                   

 ----------------------------------------------------------------------------- 
|                                                                             |
|           W    W    AA    RRRRR   N    N  II  N    N   GGGG   !!!           |
|           W    W   A  A   R    R  NN   N  II  NN   N  G    G  !!!           |
|           W    W  A    A  R    R  N N  N  II  N N  N  G       !!!           |
|           W WW W  AAAAAA  RRRRR   N  N N  II  N  N N  G  GGG   !            |
|           WW  WW  A    A  R   R   N   NN  II  N   NN  G    G                |
|           W    W  A    A  R    R  N    N  II  N    N   GGGG   !!!           |
|                                                                             |
|      For optimal performance we recommend that you set                      |
|        NPAR = 4 - approx SQRT( number of cores)                             |
|      (number of cores/NPAR must be integer)                                 |
|      This setting will greatly improve the performance of VASP for DFT.     |
|      The default NPAR=number of cores might be grossly inefficient          |
|      on modern multi-core architectures or massively parallel machines.     |
|      Do your own testing.                                                   |
|      Unfortunately you need to use the default for hybrid, GW and RPA       |
|      calculations.                                                          |
|                                                                             |
 ----------------------------------------------------------------------------- 

 POTCAR:    PAW_PBE O 08Apr2002                   
  local pseudopotential read in
  partial core-charges read in
  partial kinetic energy density read in
  kinetic energy density of atom read in
  atomic valenz-charges read in
  non local Contribution for L=           0  read in
    real space projection operators read in
  non local Contribution for L=           0  read in
    real space projection operators read in
  non local Contribution for L=           1  read in
    real space projection operators read in
  non local Contribution for L=           1  read in
    real space projection operators read in
    PAW grid and wavefunctions read in
 
   number of l-projection  operators is LMAX  =           4
   number of lm-projection operators is LMMAX =           8
 
 POTCAR:    PAW_PBE H 15Jun2001                   
  local pseudopotential read in
  atomic valenz-charges read in
  non local Contribution for L=           0  read in
    real space projection operators read in
  non local Contribution for L=           0  read in
    real space projection operators read in
  non local Contribution for L=           1  read in
    real space projection operators read in
    PAW grid and wavefunctions read in
 
   number of l-projection  operators is LMAX  =           3
   number of lm-projection operators is LMMAX =           5
 
 POTCAR:    PAW_PBE C 08Apr2002                   
  local pseudopotential read in
  partial core-charges read in
  partial kinetic energy density read in
  atomic valenz-charges read in
  non local Contribution for L=           0  read in
    real space projection operators read in
  non local Contribution for L=           0  read in
    real space projection operators read in
  non local Contribution for L=           1  read in
    real space projection operators read in
  non local Contribution for L=           1  read in
    real space projection operators read in
    PAW grid and wavefunctions read in
 
   number of l-projection  operators is LMAX  =           4
   number of lm-projection operators is LMMAX =           8
 
 Optimization of the real space projectors (new method)

 maximal supplied QI-value         = 24.76
 optimisation between [QCUT,QGAM] = [ 10.15, 20.30] = [ 28.85,115.39] Ry 
 Optimized for a Real-space Cutoff    1.51 Angstroem

   l    n(q)    QCUT    max X(q) W(low)/X(q) W(high)/X(q)  e(spline) 
   0      9    10.150    20.381    0.17E-03    0.18E-03    0.41E-06
   0      9    10.150    15.268    0.18E-03    0.20E-03    0.43E-06
   1      9    10.150     5.964    0.16E-03    0.20E-03    0.36E-06
   1      9    10.150     5.382    0.13E-03    0.16E-03    0.33E-06
 Optimization of the real space projectors (new method)

 maximal supplied QI-value         = 34.20
 optimisation between [QCUT,QGAM] = [  9.92, 20.18] = [ 27.55,114.04] Ry 
 Optimized for a Real-space Cutoff    1.34 Angstroem

   l    n(q)    QCUT    max X(q) W(low)/X(q) W(high)/X(q)  e(spline) 
   0      8     9.919    19.460    0.16E-03    0.20E-03    0.36E-06
   0      8     9.919    12.209    0.16E-03    0.20E-03    0.35E-06
   1      8     9.919     4.655    0.19E-03    0.46E-03    0.40E-06
 Optimization of the real space projectors (new method)

 maximal supplied QI-value         = 25.13
 optimisation between [QCUT,QGAM] = [ 10.05, 20.36] = [ 28.30,116.06] Ry 
 Optimized for a Real-space Cutoff    1.51 Angstroem

   l    n(q)    QCUT    max X(q) W(low)/X(q) W(high)/X(q)  e(spline) 
   0      9    10.053   115.676    0.19E-03    0.21E-03    0.38E-06
   0      9    10.053    87.132    0.19E-03    0.21E-03    0.38E-06
   1      9    10.053     4.429    0.87E-04    0.11E-03    0.39E-06
   1      9    10.053     2.733    0.59E-04    0.62E-04    0.43E-06
  PAW_PBE O 08Apr2002                   :
 energy of atom  1       EATOM= -432.3788
 kinetic energy error for atom=    0.1156 (will be added to EATOM!!)
  PAW_PBE H 15Jun2001                   :
 energy of atom  2       EATOM=  -12.4884
 kinetic energy error for atom=    0.0098 (will be added to EATOM!!)
  PAW_PBE C 08Apr2002                   :
 energy of atom  3       EATOM= -147.1560
 kinetic energy error for atom=    0.0288 (will be added to EATOM!!)
 
 
 POSCAR: O  H  C                                 
  positions in direct lattice
  velocities in cartesian coordinates
 exchange correlation table for  LEXCH =        8
   RHO(1)=    0.500       N(1)  =     2000
   RHO(2)=  100.500       N(2)  =     4000

 VTST: version 3.0, (09/19/12)

 CHAIN: initializing optimizer
 
 OPT: Using VASP QUASI-newton optimizer
 CHAIN: Read ICHAIN            0
 
 POSCAR: O  H  C                                 
  positions in direct lattice
  velocities in cartesian coordinates
 


--------------------------------------------------------------------------------------------------------


 ion  position               nearest neighbor table
   1  0.416  0.536  0.631-   9 1.42   8 1.42
   2  0.355  0.457  0.611-   8 1.10
   3  0.358  0.480  0.698-   8 1.11
   4  0.427  0.436  0.660-   8 1.11
   5  0.501  0.531  0.692-   9 1.11
   6  0.431  0.573  0.728-   9 1.11
   7  0.477  0.612  0.662-   9 1.10
   8  0.388  0.474  0.652-   2 1.10   3 1.11   4 1.11   1 1.42
   9  0.458  0.564  0.681-   7 1.10   5 1.11   6 1.11   1 1.42
 

IMPORTANT INFORMATION: All symmetrisations will be switched off!
NOSYMM: (Re-)initialisation of all symmetry stuff for point group C_1.

 
 
 KPOINTS: K-Point Grid. Created by Vassili Vorotni

Automatic generation of k-mesh.
Space group operators:
 irot       det(A)        alpha          n_x          n_y          n_z        tau_x        tau_y        tau_z
    1     1.000000     0.000001     1.000000     0.000000     0.000000     0.000000     0.000000     0.000000
 
 Subroutine IBZKPT returns following result:
 ===========================================
 
 Found      1 irreducible k-points:
 
 Following reciprocal coordinates:
            Coordinates               Weight
  0.000000  0.000000  0.000000      1.000000
 
 Following cartesian coordinates:
            Coordinates               Weight
  0.000000  0.000000  0.000000      1.000000
 


--------------------------------------------------------------------------------------------------------




 Dimension of arrays:
   k-points           NKPTS =      1   k-points in BZ     NKDIM =      1   number of bands    NBANDS=     15
   number of dos      NEDOS =    301   number of ions     NIONS =      9
   non local maximal  LDIM  =      4   non local SUM 2l+1 LMDIM =      8
   total plane-waves  NPLWV = 941192
   max r-space proj   IRMAX =   1741   max aug-charges    IRDMAX=   1161
   dimension x,y,z NGX =    98 NGY =   98 NGZ =   98
   dimension x,y,z NGXF=   168 NGYF=  168 NGZF=  168
   support grid    NGXF=   168 NGYF=  168 NGZF=  168
   ions per type =               1   6   2
 NGX,Y,Z   is equivalent  to a cutoff of   8.15,  8.15,  8.15 a.u.
 NGXF,Y,Z  is equivalent  to a cutoff of  13.96, 13.96, 13.96 a.u.


 I would recommend the setting:
   dimension x,y,z NGX =    98 NGY =   98 NGZ =   98
 SYSTEM =  unknown system                          
 POSCAR =  O  H  C                                 

 Startparameter for this run:
   NWRITE =      1    write-flag & timer
   PREC   = med       normal or accurate (medium, high low for compatibility)
   ISTART =      0    job   : 0-new  1-cont  2-samecut
   ICHARG =      2    charge: 1-file 2-atom 10-const
   ISPIN  =      1    spin polarized calculation?
   LNONCOLLINEAR =      F non collinear calculations
   LSORBIT =      F    spin-orbit coupling
   INIWAV =      1    electr: 0-lowe 1-rand  2-diag
   LASPH  =      F    aspherical Exc in radial PAW
   METAGGA=      F    non-selfconsistent MetaGGA calc.

 Electronic Relaxation 1
   ENCUT  =  400.0 eV  29.40 Ry    5.42 a.u.  32.61 32.61 32.61*2*pi/ulx,y,z
   ENINI  =  400.0     initial cutoff
   ENAUG  =  644.9 eV  augmentation charge cutoff
   NELM   =    400;   NELMIN=  2; NELMDL=-10     # of ELM steps 
   EDIFF  = 0.1E-05   stopping-criterion for ELM
   LREAL  =      T    real-space projection
   NLSPLINE    = F    spline interpolate recip. space projectors
   LCOMPAT=      F    compatible to vasp.4.4
   GGA_COMPAT  = T    GGA compatible to vasp.4.4-vasp.4.6
   LMAXPAW     = -100 max onsite density
   LMAXMIX     =    2 max onsite mixed and CHGCAR
   VOSKOWN=      1    Vosko Wilk Nusair interpolation
   ROPT   =   -0.00020  -0.00020  -0.00020
 Ionic relaxation
   EDIFFG = -.1E-01   stopping-criterion for IOM
   NSW    =    200    number of steps for IOM
   NBLOCK =      1;   KBLOCK =    200    inner block; outer block 
   IBRION =      1    ionic relax: 0-MD 1-quasi-New 2-CG
   NFREE  =      2    steps in history (QN), initial steepest desc. (CG)
   ISIF   =      2    stress and relaxation
   IWAVPR =     11    prediction:  0-non 1-charg 2-wave 3-comb
   ISYM   =      0    0-nonsym 1-usesym 2-fastsym
   LCORR  =      T    Harris-Foulkes like correction to forces

   POTIM  = 0.5000    time-step for ionic-motion
   TEIN   =    0.0    initial temperature
   TEBEG  =    0.0;   TEEND  =   0.0 temperature during run
   SMASS  =  -3.00    Nose mass-parameter (am)
   estimated Nose-frequenzy (Omega)   =  0.10E-29 period in steps =****** mass=  -0.914E-26a.u.
   SCALEE = 1.0000    scale energy and forces
   NPACO  =    256;   APACO  = 16.0  distance and # of slots for P.C.
   PSTRESS=    0.0 pullay stress

  Mass of Ions in am
   POMASS =  16.00  1.00 12.01
  Ionic Valenz
   ZVAL   =   6.00  1.00  4.00
  Atomic Wigner-Seitz radii
   RWIGS  =  -1.00 -1.00 -1.00
  virtual crystal weights 
   VCA    =   1.00  1.00  1.00
   NELECT =      20.0000    total number of electrons
   NUPDOWN=      -1.0000    fix difference up-down

 DOS related values:
   EMIN   =  10.00;   EMAX   =-10.00  energy-range for DOS
   EFERMI =   0.00
   ISMEAR =     1;   SIGMA  =   0.01  broadening in eV -4-tet -1-fermi 0-gaus

 Electronic relaxation 2 (details)
   IALGO  =     68    algorithm
   LDIAG  =      T    sub-space diagonalisation (order eigenvalues)
   LSUBROT=      T    optimize rotation matrix (better conditioning)
   TURBO    =      0    0=normal 1=particle mesh
   IRESTART =      0    0=no restart 2=restart with 2 vectors
   NREBOOT  =      0    no. of reboots
   NMIN     =      0    reboot dimension
   EREF     =   0.00    reference energy to select bands
   IMIX   =      4    mixing-type and parameters
     AMIX     =   0.40;   BMIX     =  1.00
     AMIX_MAG =   1.60;   BMIX_MAG =  1.00
     AMIN     =   0.10
     WC   =   100.;   INIMIX=   1;  MIXPRE=   1;  MAXMIX= -45

 Intra band minimization:
   WEIMIN = 0.0010     energy-eigenvalue tresh-hold
   EBREAK =  0.17E-07  absolut break condition
   DEPER  =   0.30     relativ break condition  

   TIME   =   0.40     timestep for ELM

  volume/ion in A,a.u.               =     888.89      5998.52
  Fermi-wavevector in a.u.,A,eV,Ry     =   0.222188  0.419875  0.671689  0.049368
  Thomas-Fermi vector in A             =   1.005112
 
 Write flags
   LWAVE  =      F    write WAVECAR
   LCHARG =      F    write CHGCAR
   LVTOT  =      F    write LOCPOT, total local potential
   LVHAR  =      F    write LOCPOT, Hartree potential only
   LELF   =      F    write electronic localiz. function (ELF)
   LORBIT =      0    0 simple, 1 ext, 2 COOP (PROOUT)


 Dipole corrections
   LMONO  =      F    monopole corrections only (constant potential shift)
   LDIPOL =      F    correct potential (dipole corrections)
   IDIPOL =      0    1-x, 2-y, 3-z, 4-all directions 
   EPSILON=  1.0000000 bulk dielectric constant

 Exchange correlation treatment:
   GGA     =    --    GGA type
   LEXCH   =     8    internal setting for exchange type
   VOSKOWN=      1    Vosko Wilk Nusair interpolation
   LHFCALC =     F    Hartree Fock is set to
   LHFONE  =     F    Hartree Fock one center treatment
   AEXX    =    0.0000 exact exchange contribution

 Linear response parameters
   LEPSILON=     F    determine dielectric tensor
   LRPA    =     F    only Hartree local field effects (RPA)
   LNABLA  =     F    use nabla operator in PAW spheres
   LVEL    =     F    velocity operator in full k-point grid
   LINTERFAST=   F  fast interpolation
   KINTER  =     0    interpolate to denser k-point grid
   CSHIFT  =0.1000    complex shift for real part using Kramers Kronig
   OMEGAMAX=  -1.0    maximum frequency
   DEG_THRESHOLD= 0.2000000E-02 threshold for treating states as degnerate
   RTIME   =    0.100 relaxation time in fs

 Orbital magnetization related:
   ORBITALMAG=     F  switch on orbital magnetization
   LCHIMAG   =     F  perturbation theory with respect to B field
   DQ        =  0.001000  dq finite difference perturbation B field



--------------------------------------------------------------------------------------------------------


 quasi-Newton-method for relaxation of ions
   using selective dynamics as specified on POSCAR
 charge density and potential will be updated during run
 non-spin polarized calculation
 RMM-DIIS sequential band-by-band and
  variant of blocked Davidson during initial phase
 perform sub-space diagonalisation
    before iterative eigenvector-optimisation
 modified Broyden-mixing scheme, WC =      100.0
 initial mixing is a Kerker type mixing with AMIX =  0.4000 and BMIX =      1.0000
 Hartree-type preconditioning will be used
 using additional bands            5
 real space projection scheme for non local part
 use partial core corrections
 calculate Harris-corrections to forces 
   (improved forces if not selfconsistent)
 use gradient corrections 
 use of overlap-Matrix (Vanderbilt PP)
 Methfessel and Paxton  Order N= 1 SIGMA  =   0.01


--------------------------------------------------------------------------------------------------------


  energy-cutoff  :      400.00
  volume of cell :     8000.00
      direct lattice vectors                 reciprocal lattice vectors
    16.329931619 -8.164965809 -8.164965809     0.040824829 -0.020412415 -0.020412415
     0.000000000 14.142135624-14.142135624     0.000000000  0.035355339 -0.035355339
    11.547005384 11.547005384 11.547005384     0.028867513  0.028867513  0.028867513

  length of vectors
    20.000000000 20.000000000 20.000000000     0.050000000  0.050000000  0.050000000


 
 k-points in units of 2pi/SCALE and weight: K-Point Grid. Created by Vassili Vorotni
   0.00000000  0.00000000  0.00000000       1.000
 
 k-points in reciprocal lattice and weights: K-Point Grid. Created by Vassili Vorotni
   0.00000000  0.00000000  0.00000000       1.000
 
 position of ions in fractional coordinates (direct lattice) 
   0.41563168  0.53646574  0.63136304
   0.35515308  0.45725479  0.61102641
   0.35797272  0.47963394  0.69797822
   0.42722616  0.43634942  0.66045089
   0.50111394  0.53119005  0.69189302
   0.43060238  0.57336683  0.72832304
   0.47653069  0.61211877  0.66152834
   0.38790244  0.47438950  0.65163637
   0.45798951  0.56424472  0.68102162
 
 position of ions in cartesian coordinates  (Angst):
  14.07758934 11.48350528 -3.69003726
  12.85515068 10.62227170 -2.31084680
  13.90522838 11.91977146 -1.64632498
  14.60280397 10.30885568 -2.03296974
  16.17244882 11.40987594 -3.61444743
  15.44165759 13.00272783 -3.21453506
  15.42038487 12.40448110 -4.90885215
  13.85886912 11.06611918 -2.35164214
  15.34269766 12.10391703 -3.85533377
 


--------------------------------------------------------------------------------------------------------


 k-point  1 :   0.0000 0.0000 0.0000  plane waves:  145165

 maximum and minimum number of plane-waves per node :      7271     7241

 maximum number of plane-waves:    145165
 maximum index in each direction: 
   IXMAX=   32   IYMAX=   32   IZMAX=   32
   IXMIN=  -32   IYMIN=  -32   IZMIN=  -32

 WARNING: aliasing errors must be expected set NGX to 130 to avoid them
 WARNING: aliasing errors must be expected set NGY to 130 to avoid them
 WARNING: aliasing errors must be expected set NGZ to 130 to avoid them
 aliasing errors are usually negligible using standard VASP settings
 and one can safely disregard these warnings

 real space projection operators:
  total allocation   :        578.57 KBytes
  max/ min on nodes  :         39.50         18.12


 parallel 3D FFT for wavefunctions:
    minimum data exchange during FFTs selected (reduces bandwidth)
 parallel 3D FFT for charge:
    minimum data exchange during FFTs selected (reduces bandwidth)


 total amount of memory used by VASP on root node    60542. kBytes
========================================================================

   base      :      30000. kBytes
   nonlr-proj:        308. kBytes
   fftplans  :      10155. kBytes
   grid      :      18330. kBytes
   one-center:          3. kBytes
   wavefun   :       1746. kBytes
 
 Broyden mixing: mesh for mixing (old mesh)
   NGX = 65   NGY = 65   NGZ = 65
  (NGX  =168   NGY  =168   NGZ  =168)
  gives a total of 274625 points

 initial charge density was supplied:
 charge density of overlapping atoms calculated
 number of electron      20.0000000 magnetization 
 keeping initial charge density in first step


--------------------------------------------------------------------------------------------------------


 Maximum index for non-local projection operator          165
 Maximum index for augmentation-charges           80 (set IRDMAX)


--------------------------------------------------------------------------------------------------------


 First call to EWALD:  gamma=   0.089
 Maximum number of real-space cells 3x 3x 3
 Maximum number of reciprocal cells 3x 3x 3

 FEWALD executed in parallel
    FEWALD:  cpu time    0.05: real time    0.05


----------------------------------------- Iteration    1(   1)  ---------------------------------------


    POTLOK:  cpu time    0.83: real time    0.97
    SETDIJ:  cpu time    0.00: real time    0.00
     EDDAV:  cpu time    0.90: real time    0.93
       DOS:  cpu time    0.00: real time    0.00
    --------------------------------------------
      LOOP:  cpu time    1.74: real time    1.95

 eigenvalue-minimisations  :    46
 total energy-change (2. order) : 0.1213028E+03  (-0.3755907E+03)
 number of electron      20.0000000 magnetization 
 augmentation part       20.0000000 magnetization 

 Free energy of the ion-electron system (eV)
  ---------------------------------------------------
  alpha Z        PSCENC =         0.19712360
  Ewald energy   TEWEN  =       952.11215357
  -1/2 Hartree   DENC   =     -1528.29059120
  -exchange  EXHF       =         0.00000000
  -V(xc)+E(xc)   XCENC  =        67.76878752
  PAW double counting   =       576.39773427     -579.38848325
  entropy T*S    EENTRO =         0.00000000
  eigenvalues    EBANDS =      -168.88338107
  atomic energy  EATOM  =       801.38943977
  ---------------------------------------------------
  free energy    TOTEN  =       121.30278319 eV

  energy without entropy =      121.30278319  energy(sigma->0) =      121.30278319


--------------------------------------------------------------------------------------------------------




----------------------------------------- Iteration    1(   2)  ---------------------------------------


     EDDAV:  cpu time    1.13: real time    1.13
       DOS:  cpu time    0.00: real time    0.00
    --------------------------------------------
      LOOP:  cpu time    1.13: real time    1.17

 eigenvalue-minimisations  :    60
 total energy-change (2. order) :-0.1160579E+03  (-0.1142659E+03)
 number of electron      20.0000000 magnetization 
 augmentation part       20.0000000 magnetization 

 Free energy of the ion-electron system (eV)
  ---------------------------------------------------
  alpha Z        PSCENC =         0.19712360
  Ewald energy   TEWEN  =       952.11215357
  -1/2 Hartree   DENC   =     -1528.29059120
  -exchange  EXHF       =         0.00000000
  -V(xc)+E(xc)   XCENC  =        67.76878752
  PAW double counting   =       576.39773427     -579.38848325
  entropy T*S    EENTRO =         0.00057979
  eigenvalues    EBANDS =      -284.94185020
  atomic energy  EATOM  =       801.38943977
  ---------------------------------------------------
  free energy    TOTEN  =         5.24489385 eV

  energy without entropy =        5.24431406  energy(sigma->0) =        5.24470059


--------------------------------------------------------------------------------------------------------




----------------------------------------- Iteration    1(   3)  ---------------------------------------


     EDDAV:  cpu time    0.74: real time    0.75
       DOS:  cpu time    0.00: real time    0.00
    --------------------------------------------
      LOOP:  cpu time    0.74: real time    0.77

 eigenvalue-minimisations  :    37
 total energy-change (2. order) :-0.4506184E+02  (-0.4503589E+02)
 number of electron      20.0000000 magnetization 
 augmentation part       20.0000000 magnetization 

 Free energy of the ion-electron system (eV)
  ---------------------------------------------------
  alpha Z        PSCENC =         0.19712360
  Ewald energy   TEWEN  =       952.11215357
  -1/2 Hartree   DENC   =     -1528.29059120
  -exchange  EXHF       =         0.00000000
  -V(xc)+E(xc)   XCENC  =        67.76878752
  PAW double counting   =       576.39773427     -579.38848325
  entropy T*S    EENTRO =         0.00000000
  eigenvalues    EBANDS =      -330.00310769
  atomic energy  EATOM  =       801.38943977
  ---------------------------------------------------
  free energy    TOTEN  =       -39.81694343 eV

  energy without entropy =      -39.81694343  energy(sigma->0) =      -39.81694343


--------------------------------------------------------------------------------------------------------




----------------------------------------- Iteration    1(   4)  ---------------------------------------


     EDDAV:  cpu time    0.63: real time    0.63
       DOS:  cpu time    0.00: real time    0.00
    --------------------------------------------
      LOOP:  cpu time    0.63: real time    0.65

 eigenvalue-minimisations  :    30
 total energy-change (2. order) :-0.1055494E+02  (-0.1055468E+02)
 number of electron      20.0000000 magnetization 
 augmentation part       20.0000000 magnetization 

 Free energy of the ion-electron system (eV)
  ---------------------------------------------------
  alpha Z        PSCENC =         0.19712360
  Ewald energy   TEWEN  =       952.11215357
  -1/2 Hartree   DENC   =     -1528.29059120
  -exchange  EXHF       =         0.00000000
  -V(xc)+E(xc)   XCENC  =        67.76878752
  PAW double counting   =       576.39773427     -579.38848325
  entropy T*S    EENTRO =         0.00000000
  eigenvalues    EBANDS =      -340.55804485
  atomic energy  EATOM  =       801.38943977
  ---------------------------------------------------
  free energy    TOTEN  =       -50.37188059 eV

  energy without entropy =      -50.37188059  energy(sigma->0) =      -50.37188059


--------------------------------------------------------------------------------------------------------




----------------------------------------- Iteration    1(   5)  ---------------------------------------


     EDDAV:  cpu time    0.74: real time    0.75
       DOS:  cpu time    0.00: real time    0.00
    --------------------------------------------
      LOOP:  cpu time    0.75: real time    0.77

 eigenvalue-minimisations  :    37
 total energy-change (2. order) :-0.5632619E+00  (-0.5638347E+00)
 number of electron      20.0000000 magnetization 
 augmentation part       20.0000000 magnetization 

 Free energy of the ion-electron system (eV)
  ---------------------------------------------------
  alpha Z        PSCENC =         0.19712360
  Ewald energy   TEWEN  =       952.11215357
  -1/2 Hartree   DENC   =     -1528.29059120
  -exchange  EXHF       =         0.00000000
  -V(xc)+E(xc)   XCENC  =        67.76878752
  PAW double counting   =       576.39773427     -579.38848325
  entropy T*S    EENTRO =         0.00057979
  eigenvalues    EBANDS =      -341.12188653
  atomic energy  EATOM  =       801.38943977
  ---------------------------------------------------
  free energy    TOTEN  =       -50.93514248 eV

  energy without entropy =      -50.93572227  energy(sigma->0) =      -50.93533575


--------------------------------------------------------------------------------------------------------




----------------------------------------- Iteration    1(   6)  ---------------------------------------


     EDDAV:  cpu time    0.74: real time    0.75
       DOS:  cpu time    0.00: real time    0.00
    --------------------------------------------
      LOOP:  cpu time    0.75: real time    0.77

 eigenvalue-minimisations  :    37
 total energy-change (2. order) :-0.4320326E-02  (-0.3740343E-02)
 number of electron      20.0000000 magnetization 
 augmentation part       20.0000000 magnetization 

 Free energy of the ion-electron system (eV)
  ---------------------------------------------------
  alpha Z        PSCENC =         0.19712360
  Ewald energy   TEWEN  =       952.11215357
  -1/2 Hartree   DENC   =     -1528.29059120
  -exchange  EXHF       =         0.00000000
  -V(xc)+E(xc)   XCENC  =        67.76878752
  PAW double counting   =       576.39773427     -579.38848325
  entropy T*S    EENTRO =         0.00000000
  eigenvalues    EBANDS =      -341.12562707
  atomic energy  EATOM  =       801.38943977
  ---------------------------------------------------
  free energy    TOTEN  =       -50.93946281 eV

  energy without entropy =      -50.93946281  energy(sigma->0) =      -50.93946281


--------------------------------------------------------------------------------------------------------




----------------------------------------- Iteration    1(   7)  ---------------------------------------


     EDDAV:  cpu time    0.86: real time    0.86
       DOS:  cpu time    0.00: real time    0.00
    --------------------------------------------
      LOOP:  cpu time    0.86: real time    0.89

 eigenvalue-minimisations  :    44
 total energy-change (2. order) :-0.1100567E-03  (-0.1100483E-03)
 number of electron      20.0000000 magnetization 
 augmentation part       20.0000000 magnetization 

 Free energy of the ion-electron system (eV)
  ---------------------------------------------------
  alpha Z        PSCENC =         0.19712360
  Ewald energy   TEWEN  =       952.11215357
  -1/2 Hartree   DENC   =     -1528.29059120
  -exchange  EXHF       =         0.00000000
  -V(xc)+E(xc)   XCENC  =        67.76878752
  PAW double counting   =       576.39773427     -579.38848325
  entropy T*S    EENTRO =         0.00000000
  eigenvalues    EBANDS =      -341.12573713
  atomic energy  EATOM  =       801.38943977
  ---------------------------------------------------
  free energy    TOTEN  =       -50.93957287 eV

  energy without entropy =      -50.93957287  energy(sigma->0) =      -50.93957287


--------------------------------------------------------------------------------------------------------




----------------------------------------- Iteration    1(   8)  ---------------------------------------


     EDDAV:  cpu time    0.86: real time    0.86
       DOS:  cpu time    0.00: real time    0.00
    --------------------------------------------
      LOOP:  cpu time    0.86: real time    0.88

 eigenvalue-minimisations  :    44
 total energy-change (2. order) :-0.5957586E-05  (-0.5957463E-05)
 number of electron      20.0000000 magnetization 
 augmentation part       20.0000000 magnetization 

 Free energy of the ion-electron system (eV)
  ---------------------------------------------------
  alpha Z        PSCENC =         0.19712360
  Ewald energy   TEWEN  =       952.11215357
  -1/2 Hartree   DENC   =     -1528.29059120
  -exchange  EXHF       =         0.00000000
  -V(xc)+E(xc)   XCENC  =        67.76878752
  PAW double counting   =       576.39773427     -579.38848325
  entropy T*S    EENTRO =         0.00000000
  eigenvalues    EBANDS =      -341.12574308
  atomic energy  EATOM  =       801.38943977
  ---------------------------------------------------
  free energy    TOTEN  =       -50.93957882 eV

  energy without entropy =      -50.93957882  energy(sigma->0) =      -50.93957882


--------------------------------------------------------------------------------------------------------




----------------------------------------- Iteration    1(   9)  ---------------------------------------


     EDDAV:  cpu time    0.86: real time    0.86
       DOS:  cpu time    0.00: real time    0.00
    --------------------------------------------
      LOOP:  cpu time    0.86: real time    0.88

 eigenvalue-minimisations  :    44
 total energy-change (2. order) :-0.3839773E-06  (-0.3840405E-06)
 number of electron      20.0000000 magnetization 
 augmentation part       20.0000000 magnetization 

 Free energy of the ion-electron system (eV)
  ---------------------------------------------------
  alpha Z        PSCENC =         0.19712360
  Ewald energy   TEWEN  =       952.11215357
  -1/2 Hartree   DENC   =     -1528.29059120
  -exchange  EXHF       =         0.00000000
  -V(xc)+E(xc)   XCENC  =        67.76878752
  PAW double counting   =       576.39773427     -579.38848325
  entropy T*S    EENTRO =         0.00000000
  eigenvalues    EBANDS =      -341.12574347
  atomic energy  EATOM  =       801.38943977
  ---------------------------------------------------
  free energy    TOTEN  =       -50.93957921 eV

  energy without entropy =      -50.93957921  energy(sigma->0) =      -50.93957921


--------------------------------------------------------------------------------------------------------




----------------------------------------- Iteration    1(  10)  ---------------------------------------


     EDDAV:  cpu time    0.73: real time    0.73
       DOS:  cpu time    0.00: real time    0.00
    CHARGE:  cpu time    0.07: real time    0.07
    MIXING:  cpu time    0.02: real time    0.02
    --------------------------------------------
      LOOP:  cpu time    0.83: real time    0.85

 eigenvalue-minimisations  :    36
 total energy-change (2. order) :-0.2089268E-07  (-0.2057504E-07)
 number of electron      20.0000055 magnetization 
 augmentation part        1.0603927 magnetization 

 Broyden mixing:
  rms(total) = 0.11578E+01    rms(broyden)= 0.11562E+01
  rms(prec ) = 0.12596E+01
  weight for this iteration     100.00

 Free energy of the ion-electron system (eV)
  ---------------------------------------------------
  alpha Z        PSCENC =         0.19712360
  Ewald energy   TEWEN  =       952.11215357
  -1/2 Hartree   DENC   =     -1528.29059120
  -exchange  EXHF       =         0.00000000
  -V(xc)+E(xc)   XCENC  =        67.76878752
  PAW double counting   =       576.39773427     -579.38848325
  entropy T*S    EENTRO =         0.00000000
  eigenvalues    EBANDS =      -341.12574349
  atomic energy  EATOM  =       801.38943977
  ---------------------------------------------------
  free energy    TOTEN  =       -50.93957923 eV

  energy without entropy =      -50.93957923  energy(sigma->0) =      -50.93957923


--------------------------------------------------------------------------------------------------------




----------------------------------------- Iteration    1(  11)  ---------------------------------------


    POTLOK:  cpu time    0.51: real time    0.51
    SETDIJ:  cpu time    0.00: real time    0.00
    EDDIAG:  cpu time    0.08: real time    0.08
  RMM-DIIS:  cpu time    0.52: real time    0.52
    ORTHCH:  cpu time    0.00: real time    0.00
       DOS:  cpu time    0.00: real time    0.00
    CHARGE:  cpu time    0.07: real time    0.07
    MIXING:  cpu time    0.02: real time    0.02
    --------------------------------------------
      LOOP:  cpu time    1.21: real time    1.23

 eigenvalue-minimisations  :    30
 total energy-change (2. order) : 0.3551020E+01  (-0.5871694E+00)
 number of electron      20.0000053 magnetization 
 augmentation part        0.9962065 magnetization 

 Broyden mixing:
  rms(total) = 0.61201E+00    rms(broyden)= 0.61194E+00
  rms(prec ) = 0.65627E+00
  weight for this iteration     100.00

 eigenvalues of (default mixing * dielectric matrix)
  average eigenvalue GAMMA=   1.6068
  1.6068

 Free energy of the ion-electron system (eV)
  ---------------------------------------------------
  alpha Z        PSCENC =         0.19712360
  Ewald energy   TEWEN  =       952.11215357
  -1/2 Hartree   DENC   =     -1569.36279720
  -exchange  EXHF       =         0.00000000
  -V(xc)+E(xc)   XCENC  =        69.94976569
  PAW double counting   =       852.68049061     -856.08753196
  entropy T*S    EENTRO =         0.00057979
  eigenvalues    EBANDS =      -298.26778266
  atomic energy  EATOM  =       801.38943977
  ---------------------------------------------------
  free energy    TOTEN  =       -47.38855880 eV

  energy without entropy =      -47.38913859  energy(sigma->0) =      -47.38875206


--------------------------------------------------------------------------------------------------------




----------------------------------------- Iteration    1(  12)  ---------------------------------------


    POTLOK:  cpu time    0.50: real time    0.51
    SETDIJ:  cpu time    0.00: real time    0.00
    EDDIAG:  cpu time    0.08: real time    0.08
  RMM-DIIS:  cpu time    0.52: real time    0.52
    ORTHCH:  cpu time    0.00: real time    0.00
       DOS:  cpu time    0.00: real time    0.00
    CHARGE:  cpu time    0.07: real time    0.07
    MIXING:  cpu time    0.02: real time    0.03
    --------------------------------------------
      LOOP:  cpu time    1.21: real time    1.23

 eigenvalue-minimisations  :    30
 total energy-change (2. order) : 0.8590058E+00  (-0.2643725E+00)
 number of electron      20.0000052 magnetization 
 augmentation part        0.9601481 magnetization 

 Broyden mixing:
  rms(total) = 0.25008E+00    rms(broyden)= 0.24997E+00
  rms(prec ) = 0.26462E+00
  weight for this iteration     100.00

 eigenvalues of (default mixing * dielectric matrix)
  average eigenvalue GAMMA=   1.8612
  1.6179  2.1046

 Free energy of the ion-electron system (eV)
  ---------------------------------------------------
  alpha Z        PSCENC =         0.19712360
  Ewald energy   TEWEN  =       952.11215357
  -1/2 Hartree   DENC   =     -1599.61890068
  -exchange  EXHF       =         0.00000000
  -V(xc)+E(xc)   XCENC  =        71.77004755
  PAW double counting   =      1193.15895311    -1196.74052244
  entropy T*S    EENTRO =         0.00057979
  eigenvalues    EBANDS =      -268.79842728
  atomic energy  EATOM  =       801.38943977
  ---------------------------------------------------
  free energy    TOTEN  =       -46.52955301 eV

  energy without entropy =      -46.53013281  energy(sigma->0) =      -46.52974628


--------------------------------------------------------------------------------------------------------




----------------------------------------- Iteration    1(  13)  ---------------------------------------


    POTLOK:  cpu time    0.51: real time    0.51
    SETDIJ:  cpu time    0.00: real time    0.00
    EDDIAG:  cpu time    0.08: real time    0.08
  RMM-DIIS:  cpu time    0.52: real time    0.52
    ORTHCH:  cpu time    0.00: real time    0.00
       DOS:  cpu time    0.00: real time    0.00
    CHARGE:  cpu time    0.07: real time    0.07
    MIXING:  cpu time    0.03: real time    0.03
    --------------------------------------------
      LOOP:  cpu time    1.21: real time    1.24

 eigenvalue-minimisations  :    30
 total energy-change (2. order) : 0.1403576E+00  (-0.2346726E-01)
 number of electron      20.0000052 magnetization 
 augmentation part        0.9596175 magnetization 

 Broyden mixing:
  rms(total) = 0.31814E-01    rms(broyden)= 0.31784E-01
  rms(prec ) = 0.46138E-01
  weight for this iteration     100.00

 eigenvalues of (default mixing * dielectric matrix)
  average eigenvalue GAMMA=   1.7097
  2.2568  1.3076  1.5649

 Free energy of the ion-electron system (eV)
  ---------------------------------------------------
  alpha Z        PSCENC =         0.19712360
  Ewald energy   TEWEN  =       952.11215357
  -1/2 Hartree   DENC   =     -1606.93710754
  -exchange  EXHF       =         0.00000000
  -V(xc)+E(xc)   XCENC  =        72.32883363
  PAW double counting   =      1363.86990704    -1367.37246253
  entropy T*S    EENTRO =         0.00000000
  eigenvalues    EBANDS =      -261.97708292
  atomic energy  EATOM  =       801.38943977
  ---------------------------------------------------
  free energy    TOTEN  =       -46.38919538 eV

  energy without entropy =      -46.38919538  energy(sigma->0) =      -46.38919538


--------------------------------------------------------------------------------------------------------




----------------------------------------- Iteration    1(  14)  ---------------------------------------


    POTLOK:  cpu time    0.51: real time    0.51
    SETDIJ:  cpu time    0.00: real time    0.00
    EDDIAG:  cpu time    0.08: real time    0.08
  RMM-DIIS:  cpu time    0.54: real time    0.54
    ORTHCH:  cpu time    0.00: real time    0.00
       DOS:  cpu time    0.00: real time    0.00
    CHARGE:  cpu time    0.07: real time    0.07
    MIXING:  cpu time    0.03: real time    0.03
    --------------------------------------------
      LOOP:  cpu time    1.23: real time    1.25

 eigenvalue-minimisations  :    31
 total energy-change (2. order) : 0.1053350E-01  (-0.3221883E-02)
 number of electron      20.0000052 magnetization 
 augmentation part        0.9550490 magnetization 

 Broyden mixing:
  rms(total) = 0.22865E-01    rms(broyden)= 0.22847E-01
  rms(prec ) = 0.32454E-01
  weight for this iteration     100.00

 eigenvalues of (default mixing * dielectric matrix)
  average eigenvalue GAMMA=   1.6468
  2.0524  2.0524  1.2412  1.2412

 Free energy of the ion-electron system (eV)
  ---------------------------------------------------
  alpha Z        PSCENC =         0.19712360
  Ewald energy   TEWEN  =       952.11215357
  -1/2 Hartree   DENC   =     -1610.84608252
  -exchange  EXHF       =         0.00000000
  -V(xc)+E(xc)   XCENC  =        72.48347470
  PAW double counting   =      1377.61154673    -1381.11571327
  entropy T*S    EENTRO =         0.00057979
  eigenvalues    EBANDS =      -258.21118425
  atomic energy  EATOM  =       801.38943977
  ---------------------------------------------------
  free energy    TOTEN  =       -46.37866189 eV

  energy without entropy =      -46.37924168  energy(sigma->0) =      -46.37885515


--------------------------------------------------------------------------------------------------------




----------------------------------------- Iteration    1(  15)  ---------------------------------------


    POTLOK:  cpu time    0.51: real time    0.51
    SETDIJ:  cpu time    0.00: real time    0.00
    EDDIAG:  cpu time    0.08: real time    0.08
  RMM-DIIS:  cpu time    0.52: real time    0.52
    ORTHCH:  cpu time    0.00: real time    0.00
       DOS:  cpu time    0.00: real time    0.00
    CHARGE:  cpu time    0.07: real time    0.07
    MIXING:  cpu time    0.03: real time    0.03
    --------------------------------------------
      LOOP:  cpu time    1.22: real time    1.24

 eigenvalue-minimisations  :    30
 total energy-change (2. order) :-0.1043719E-02  (-0.3539419E-03)
 number of electron      20.0000052 magnetization 
 augmentation part        0.9553422 magnetization 

 Broyden mixing:
  rms(total) = 0.11205E-01    rms(broyden)= 0.11204E-01
  rms(prec ) = 0.20174E-01
  weight for this iteration     100.00

 eigenvalues of (default mixing * dielectric matrix)
  average eigenvalue GAMMA=   1.8047
  2.7681  2.6623  1.4001  0.9571  1.2358

 Free energy of the ion-electron system (eV)
  ---------------------------------------------------
  alpha Z        PSCENC =         0.19712360
  Ewald energy   TEWEN  =       952.11215357
  -1/2 Hartree   DENC   =     -1612.37264786
  -exchange  EXHF       =         0.00000000
  -V(xc)+E(xc)   XCENC  =        72.47380486
  PAW double counting   =      1359.84338294    -1363.33603791
  entropy T*S    EENTRO =         0.00000000
  eigenvalues    EBANDS =      -256.68692457
  atomic energy  EATOM  =       801.38943977
  ---------------------------------------------------
  free energy    TOTEN  =       -46.37970561 eV

  energy without entropy =      -46.37970561  energy(sigma->0) =      -46.37970561


--------------------------------------------------------------------------------------------------------




----------------------------------------- Iteration    1(  16)  ---------------------------------------


    POTLOK:  cpu time    0.51: real time    0.51
    SETDIJ:  cpu time    0.00: real time    0.00
    EDDIAG:  cpu time    0.09: real time    0.09
  RMM-DIIS:  cpu time    0.52: real time    0.52
    ORTHCH:  cpu time    0.00: real time    0.00
       DOS:  cpu time    0.00: real time    0.00
    CHARGE:  cpu time    0.07: real time    0.07
    MIXING:  cpu time    0.03: real time    0.03
    --------------------------------------------
      LOOP:  cpu time    1.22: real time    1.24

 eigenvalue-minimisations  :    30
 total energy-change (2. order) : 0.2450747E-02  (-0.4663842E-03)
 number of electron      20.0000052 magnetization 
 augmentation part        0.9546330 magnetization 

 Broyden mixing:
  rms(total) = 0.71728E-02    rms(broyden)= 0.71721E-02
  rms(prec ) = 0.11701E-01
  weight for this iteration     100.00

 eigenvalues of (default mixing * dielectric matrix)
  average eigenvalue GAMMA=   1.9816
  3.2061  2.5057  2.5057  0.9839  1.3441  1.3441

 Free energy of the ion-electron system (eV)
  ---------------------------------------------------
  alpha Z        PSCENC =         0.19712360
  Ewald energy   TEWEN  =       952.11215357
  -1/2 Hartree   DENC   =     -1615.44065865
  -exchange  EXHF       =         0.00000000
  -V(xc)+E(xc)   XCENC  =        72.55495960
  PAW double counting   =      1360.36816220    -1363.85522808
  entropy T*S    EENTRO =         0.00057979
  eigenvalues    EBANDS =      -253.70378665
  atomic energy  EATOM  =       801.38943977
  ---------------------------------------------------
  free energy    TOTEN  =       -46.37725486 eV

  energy without entropy =      -46.37783465  energy(sigma->0) =      -46.37744812


--------------------------------------------------------------------------------------------------------




----------------------------------------- Iteration    1(  17)  ---------------------------------------


    POTLOK:  cpu time    0.51: real time    0.51
    SETDIJ:  cpu time    0.00: real time    0.00
    EDDIAG:  cpu time    0.08: real time    0.08
  RMM-DIIS:  cpu time    0.52: real time    0.52
    ORTHCH:  cpu time    0.00: real time    0.00
       DOS:  cpu time    0.00: real time    0.00
    CHARGE:  cpu time    0.07: real time    0.07
    MIXING:  cpu time    0.03: real time    0.03
    --------------------------------------------
      LOOP:  cpu time    1.22: real time    1.24

 eigenvalue-minimisations  :    30
 total energy-change (2. order) :-0.7538284E-02  (-0.5563947E-03)
 number of electron      20.0000052 magnetization 
 augmentation part        0.9526098 magnetization 

 Broyden mixing:
  rms(total) = 0.91986E-02    rms(broyden)= 0.91947E-02
  rms(prec ) = 0.10701E-01
  weight for this iteration     100.00

 eigenvalues of (default mixing * dielectric matrix)
  average eigenvalue GAMMA=   1.9676
  4.2872  2.5369  2.2559  1.5929  0.9982  1.0511  1.0511

 Free energy of the ion-electron system (eV)
  ---------------------------------------------------
  alpha Z        PSCENC =         0.19712360
  Ewald energy   TEWEN  =       952.11215357
  -1/2 Hartree   DENC   =     -1617.63707821
  -exchange  EXHF       =         0.00000000
  -V(xc)+E(xc)   XCENC  =        72.61026084
  PAW double counting   =      1364.86061252    -1368.35522460
  entropy T*S    EENTRO =         0.00000000
  eigenvalues    EBANDS =      -251.56208062
  atomic energy  EATOM  =       801.38943977
  ---------------------------------------------------
  free energy    TOTEN  =       -46.38479314 eV

  energy without entropy =      -46.38479314  energy(sigma->0) =      -46.38479314


--------------------------------------------------------------------------------------------------------




----------------------------------------- Iteration    1(  18)  ---------------------------------------


    POTLOK:  cpu time    0.51: real time    0.51
    SETDIJ:  cpu time    0.00: real time    0.00
    EDDIAG:  cpu time    0.08: real time    0.08
  RMM-DIIS:  cpu time    0.52: real time    0.52
    ORTHCH:  cpu time    0.00: real time    0.00
       DOS:  cpu time    0.00: real time    0.00
    CHARGE:  cpu time    0.07: real time    0.07
    MIXING:  cpu time    0.03: real time    0.03
    --------------------------------------------
      LOOP:  cpu time    1.22: real time    1.25

 eigenvalue-minimisations  :    30
 total energy-change (2. order) :-0.2006988E-02  (-0.1074361E-03)
 number of electron      20.0000052 magnetization 
 augmentation part        0.9534240 magnetization 

 Broyden mixing:
  rms(total) = 0.20786E-02    rms(broyden)= 0.20764E-02
  rms(prec ) = 0.37604E-02
  weight for this iteration     100.00

 eigenvalues of (default mixing * dielectric matrix)
  average eigenvalue GAMMA=   2.0505
  4.8838  2.7375  2.3207  1.6294  1.6294  0.9781  1.1128  1.1128

 Free energy of the ion-electron system (eV)
  ---------------------------------------------------
  alpha Z        PSCENC =         0.19712360
  Ewald energy   TEWEN  =       952.11215357
  -1/2 Hartree   DENC   =     -1617.50859995
  -exchange  EXHF       =         0.00000000
  -V(xc)+E(xc)   XCENC  =        72.57914739
  PAW double counting   =      1359.11212260    -1362.60033045
  entropy T*S    EENTRO =         0.00000000
  eigenvalues    EBANDS =      -251.66785666
  atomic energy  EATOM  =       801.38943977
  ---------------------------------------------------
  free energy    TOTEN  =       -46.38680013 eV

  energy without entropy =      -46.38680013  energy(sigma->0) =      -46.38680013


--------------------------------------------------------------------------------------------------------




----------------------------------------- Iteration    1(  19)  ---------------------------------------


    POTLOK:  cpu time    0.51: real time    0.51
    SETDIJ:  cpu time    0.00: real time    0.00
    EDDIAG:  cpu time    0.08: real time    0.08
  RMM-DIIS:  cpu time    0.52: real time    0.52
    ORTHCH:  cpu time    0.00: real time    0.00
       DOS:  cpu time    0.00: real time    0.00
    CHARGE:  cpu time    0.07: real time    0.07
    MIXING:  cpu time    0.03: real time    0.03
    --------------------------------------------
      LOOP:  cpu time    1.22: real time    1.25

 eigenvalue-minimisations  :    30
 total energy-change (2. order) :-0.3502998E-02  (-0.5241482E-04)
 number of electron      20.0000052 magnetization 
 augmentation part        0.9535711 magnetization 

 Broyden mixing:
  rms(total) = 0.13316E-02    rms(broyden)= 0.13308E-02
  rms(prec ) = 0.22133E-02
  weight for this iteration     100.00

 eigenvalues of (default mixing * dielectric matrix)
  average eigenvalue GAMMA=   2.1717
  6.0154  3.1939  2.4102  1.7715  1.7715  1.1738  1.1738  1.0178  1.0178

 Free energy of the ion-electron system (eV)
  ---------------------------------------------------
  alpha Z        PSCENC =         0.19712360
  Ewald energy   TEWEN  =       952.11215357
  -1/2 Hartree   DENC   =     -1617.78964522
  -exchange  EXHF       =         0.00000000
  -V(xc)+E(xc)   XCENC  =        72.57489685
  PAW double counting   =      1359.52260126    -1363.01031756
  entropy T*S    EENTRO =         0.00057979
  eigenvalues    EBANDS =      -251.38713518
  atomic energy  EATOM  =       801.38943977
  ---------------------------------------------------
  free energy    TOTEN  =       -46.39030313 eV

  energy without entropy =      -46.39088292  energy(sigma->0) =      -46.39049639


--------------------------------------------------------------------------------------------------------




----------------------------------------- Iteration    1(  20)  ---------------------------------------


    POTLOK:  cpu time    0.51: real time    0.51
    SETDIJ:  cpu time    0.00: real time    0.00
    EDDIAG:  cpu time    0.08: real time    0.08
  RMM-DIIS:  cpu time    0.53: real time    0.54
    ORTHCH:  cpu time    0.00: real time    0.00
       DOS:  cpu time    0.00: real time    0.00
    CHARGE:  cpu time    0.07: real time    0.07
    MIXING:  cpu time    0.04: real time    0.04
    --------------------------------------------
      LOOP:  cpu time    1.24: real time    1.27

 eigenvalue-minimisations  :    31
 total energy-change (2. order) :-0.2346524E-02  (-0.3247211E-04)
 number of electron      20.0000052 magnetization 
 augmentation part        0.9532657 magnetization 

 Broyden mixing:
  rms(total) = 0.12908E-02    rms(broyden)= 0.12900E-02
  rms(prec ) = 0.17229E-02
  weight for this iteration     100.00

 eigenvalues of (default mixing * dielectric matrix)
  average eigenvalue GAMMA=   2.3469
  6.9799  4.0818  2.5164  2.0196  2.0196  1.7036  1.0945  1.0945  0.9797  0.9797

 Free energy of the ion-electron system (eV)
  ---------------------------------------------------
  alpha Z        PSCENC =         0.19712360
  Ewald energy   TEWEN  =       952.11215357
  -1/2 Hartree   DENC   =     -1617.96489211
  -exchange  EXHF       =         0.00000000
  -V(xc)+E(xc)   XCENC  =        72.57591578
  PAW double counting   =      1360.01322003    -1363.50169211
  entropy T*S    EENTRO =         0.00000000
  eigenvalues    EBANDS =      -251.21391817
  atomic energy  EATOM  =       801.38943977
  ---------------------------------------------------
  free energy    TOTEN  =       -46.39264965 eV

  energy without entropy =      -46.39264965  energy(sigma->0) =      -46.39264965


--------------------------------------------------------------------------------------------------------




----------------------------------------- Iteration    1(  21)  ---------------------------------------


    POTLOK:  cpu time    0.51: real time    0.51
    SETDIJ:  cpu time    0.00: real time    0.00
    EDDIAG:  cpu time    0.08: real time    0.08
  RMM-DIIS:  cpu time    0.52: real time    0.52
    ORTHCH:  cpu time    0.00: real time    0.00
       DOS:  cpu time    0.00: real time    0.00
    CHARGE:  cpu time    0.07: real time    0.07
    MIXING:  cpu time    0.04: real time    0.04
    --------------------------------------------
      LOOP:  cpu time    1.22: real time    1.25

 eigenvalue-minimisations  :    30
 total energy-change (2. order) :-0.1259845E-02  (-0.2439721E-04)
 number of electron      20.0000052 magnetization 
 augmentation part        0.9534344 magnetization 

 Broyden mixing:
  rms(total) = 0.96174E-03    rms(broyden)= 0.96127E-03
  rms(prec ) = 0.11322E-02
  weight for this iteration     100.00

 eigenvalues of (default mixing * dielectric matrix)
  average eigenvalue GAMMA=   2.3405
  7.3441  4.5025  2.5154  2.5154  1.8810  1.4261  1.4261  1.1113  1.1113  0.9893
  0.9231

 Free energy of the ion-electron system (eV)
  ---------------------------------------------------
  alpha Z        PSCENC =         0.19712360
  Ewald energy   TEWEN  =       952.11215357
  -1/2 Hartree   DENC   =     -1617.87686329
  -exchange  EXHF       =         0.00000000
  -V(xc)+E(xc)   XCENC  =        72.56881425
  PAW double counting   =      1360.00011047    -1363.48725624
  entropy T*S    EENTRO =         0.00000000
  eigenvalues    EBANDS =      -251.29743162
  atomic energy  EATOM  =       801.38943977
  ---------------------------------------------------
  free energy    TOTEN  =       -46.39390950 eV

  energy without entropy =      -46.39390950  energy(sigma->0) =      -46.39390950


--------------------------------------------------------------------------------------------------------




----------------------------------------- Iteration    1(  22)  ---------------------------------------


    POTLOK:  cpu time    0.51: real time    0.51
    SETDIJ:  cpu time    0.00: real time    0.00
    EDDIAG:  cpu time    0.08: real time    0.08
  RMM-DIIS:  cpu time    0.53: real time    0.53
    ORTHCH:  cpu time    0.00: real time    0.00
       DOS:  cpu time    0.00: real time    0.00
    CHARGE:  cpu time    0.07: real time    0.07
    MIXING:  cpu time    0.04: real time    0.04
    --------------------------------------------
      LOOP:  cpu time    1.24: real time    1.27

 eigenvalue-minimisations  :    31
 total energy-change (2. order) : 0.2948866E-03  (-0.5444916E-05)
 number of electron      20.0000052 magnetization 
 augmentation part        0.9534144 magnetization 

 Broyden mixing:
  rms(total) = 0.62799E-03    rms(broyden)= 0.62792E-03
  rms(prec ) = 0.72618E-03
  weight for this iteration     100.00

 eigenvalues of (default mixing * dielectric matrix)
  average eigenvalue GAMMA=   2.4758
  7.9401  5.3425  3.1241  2.5580  1.9991  1.9991  1.5614  1.1110  1.1110  1.0169
  1.0169  0.9296

 Free energy of the ion-electron system (eV)
  ---------------------------------------------------
  alpha Z        PSCENC =         0.19712360
  Ewald energy   TEWEN  =       952.11215357
  -1/2 Hartree   DENC   =     -1617.93159752
  -exchange  EXHF       =         0.00000000
  -V(xc)+E(xc)   XCENC  =        72.56900241
  PAW double counting   =      1359.46544326    -1362.95305708
  entropy T*S    EENTRO =         0.00057979
  eigenvalues    EBANDS =      -251.24270241
  atomic energy  EATOM  =       801.38943977
  ---------------------------------------------------
  free energy    TOTEN  =       -46.39361461 eV

  energy without entropy =      -46.39419440  energy(sigma->0) =      -46.39380788


--------------------------------------------------------------------------------------------------------




----------------------------------------- Iteration    1(  23)  ---------------------------------------


    POTLOK:  cpu time    0.50: real time    0.51
    SETDIJ:  cpu time    0.00: real time    0.00
    EDDIAG:  cpu time    0.08: real time    0.08
  RMM-DIIS:  cpu time    0.48: real time    0.49
    ORTHCH:  cpu time    0.00: real time    0.00
       DOS:  cpu time    0.00: real time    0.00
    CHARGE:  cpu time    0.07: real time    0.07
    MIXING:  cpu time    0.04: real time    0.04
    --------------------------------------------
      LOOP:  cpu time    1.19: real time    1.22

 eigenvalue-minimisations  :    28
 total energy-change (2. order) :-0.8070952E-03  (-0.1505585E-05)
 number of electron      20.0000052 magnetization 
 augmentation part        0.9533612 magnetization 

 Broyden mixing:
  rms(total) = 0.23044E-03    rms(broyden)= 0.23029E-03
  rms(prec ) = 0.27929E-03
  weight for this iteration     100.00

 eigenvalues of (default mixing * dielectric matrix)
  average eigenvalue GAMMA=   2.4617
  8.1165  5.5669  3.4473  2.5077  2.5077  1.7758  1.4359  1.4359  1.1045  1.1045
  0.9538  1.0226  1.0226

 Free energy of the ion-electron system (eV)
  ---------------------------------------------------
  alpha Z        PSCENC =         0.19712360
  Ewald energy   TEWEN  =       952.11215357
  -1/2 Hartree   DENC   =     -1617.94724100
  -exchange  EXHF       =         0.00000000
  -V(xc)+E(xc)   XCENC  =        72.56925945
  PAW double counting   =      1359.58685531    -1363.07463555
  entropy T*S    EENTRO =         0.00000000
  eigenvalues    EBANDS =      -251.22737686
  atomic energy  EATOM  =       801.38943977
  ---------------------------------------------------
  free energy    TOTEN  =       -46.39442171 eV

  energy without entropy =      -46.39442171  energy(sigma->0) =      -46.39442171


--------------------------------------------------------------------------------------------------------




----------------------------------------- Iteration    1(  24)  ---------------------------------------


    POTLOK:  cpu time    0.51: real time    0.51
    SETDIJ:  cpu time    0.00: real time    0.00
    EDDIAG:  cpu time    0.08: real time    0.08
  RMM-DIIS:  cpu time    0.39: real time    0.39
    ORTHCH:  cpu time    0.00: real time    0.00
       DOS:  cpu time    0.00: real time    0.00
    CHARGE:  cpu time    0.07: real time    0.07
    MIXING:  cpu time    0.04: real time    0.04
    --------------------------------------------
      LOOP:  cpu time    1.10: real time    1.13

 eigenvalue-minimisations  :    22
 total energy-change (2. order) : 0.5094369E-03  (-0.2748155E-06)
 number of electron      20.0000052 magnetization 
 augmentation part        0.9533550 magnetization 

 Broyden mixing:
  rms(total) = 0.22697E-03    rms(broyden)= 0.22693E-03
  rms(prec ) = 0.25080E-03
  weight for this iteration     100.00

 eigenvalues of (default mixing * dielectric matrix)
  average eigenvalue GAMMA=   2.5846
  8.7545  6.2145  4.0433  3.0063  2.3911  2.0332  2.0332  1.5044  1.1152  1.1152
  0.9610  0.9610  1.0257  1.0257

 Free energy of the ion-electron system (eV)
  ---------------------------------------------------
  alpha Z        PSCENC =         0.19712360
  Ewald energy   TEWEN  =       952.11215357
  -1/2 Hartree   DENC   =     -1617.95271713
  -exchange  EXHF       =         0.00000000
  -V(xc)+E(xc)   XCENC  =        72.56950757
  PAW double counting   =      1359.75739376    -1363.24509793
  entropy T*S    EENTRO =         0.00057979
  eigenvalues    EBANDS =      -251.22229526
  atomic energy  EATOM  =       801.38943977
  ---------------------------------------------------
  free energy    TOTEN  =       -46.39391227 eV

  energy without entropy =      -46.39449206  energy(sigma->0) =      -46.39410553


--------------------------------------------------------------------------------------------------------




----------------------------------------- Iteration    1(  25)  ---------------------------------------


    POTLOK:  cpu time    0.51: real time    0.51
    SETDIJ:  cpu time    0.00: real time    0.00
    EDDIAG:  cpu time    0.08: real time    0.08
  RMM-DIIS:  cpu time    0.36: real time    0.36
    ORTHCH:  cpu time    0.00: real time    0.00
       DOS:  cpu time    0.00: real time    0.00
    CHARGE:  cpu time    0.08: real time    0.08
    MIXING:  cpu time    0.05: real time    0.05
    --------------------------------------------
      LOOP:  cpu time    1.10: real time    1.13

 eigenvalue-minimisations  :    20
 total energy-change (2. order) :-0.4352224E-04  (-0.8595740E-07)
 number of electron      20.0000052 magnetization 
 augmentation part        0.9533685 magnetization 

 Broyden mixing:
  rms(total) = 0.41611E-04    rms(broyden)= 0.41559E-04
  rms(prec ) = 0.54392E-04
  weight for this iteration     100.00

 eigenvalues of (default mixing * dielectric matrix)
  average eigenvalue GAMMA=   2.5258
  8.8912  6.3494  4.3129  2.7684  2.5318  2.0592  2.0592  1.5378  1.1183  1.1183
  1.0984  1.0984  0.9247  1.0219  0.9975

 Free energy of the ion-electron system (eV)
  ---------------------------------------------------
  alpha Z        PSCENC =         0.19712360
  Ewald energy   TEWEN  =       952.11215357
  -1/2 Hartree   DENC   =     -1617.95101288
  -exchange  EXHF       =         0.00000000
  -V(xc)+E(xc)   XCENC  =        72.56899457
  PAW double counting   =      1359.68047733    -1363.16809816
  entropy T*S    EENTRO =         0.00057979
  eigenvalues    EBANDS =      -251.22361338
  atomic energy  EATOM  =       801.38943977
  ---------------------------------------------------
  free energy    TOTEN  =       -46.39395579 eV

  energy without entropy =      -46.39453558  energy(sigma->0) =      -46.39414906


--------------------------------------------------------------------------------------------------------




----------------------------------------- Iteration    1(  26)  ---------------------------------------


    POTLOK:  cpu time    0.52: real time    0.52
    SETDIJ:  cpu time    0.00: real time    0.00
    EDDIAG:  cpu time    0.08: real time    0.08
  RMM-DIIS:  cpu time    0.34: real time    0.34
    ORTHCH:  cpu time    0.00: real time    0.00
       DOS:  cpu time    0.00: real time    0.00
    CHARGE:  cpu time    0.07: real time    0.07
    MIXING:  cpu time    0.05: real time    0.05
    --------------------------------------------
      LOOP:  cpu time    1.07: real time    1.09

 eigenvalue-minimisations  :    18
 total energy-change (2. order) :-0.7249124E-05  (-0.1814311E-07)
 number of electron      20.0000052 magnetization 
 augmentation part        0.9533743 magnetization 

 Broyden mixing:
  rms(total) = 0.44805E-04    rms(broyden)= 0.44785E-04
  rms(prec ) = 0.53300E-04
  weight for this iteration     100.00

 eigenvalues of (default mixing * dielectric matrix)
  average eigenvalue GAMMA=   2.6083
  9.1582  6.8068  4.6503  3.3565  2.5932  2.4842  1.9598  1.9598  1.4852  1.1185
  1.1185  1.0727  1.0727  1.0011  0.9477  0.9477

 Free energy of the ion-electron system (eV)
  ---------------------------------------------------
  alpha Z        PSCENC =         0.19712360
  Ewald energy   TEWEN  =       952.11215357
  -1/2 Hartree   DENC   =     -1617.95386474
  -exchange  EXHF       =         0.00000000
  -V(xc)+E(xc)   XCENC  =        72.56905893
  PAW double counting   =      1359.67136515    -1363.15898104
  entropy T*S    EENTRO =         0.00057979
  eigenvalues    EBANDS =      -251.22083807
  atomic energy  EATOM  =       801.38943977
  ---------------------------------------------------
  free energy    TOTEN  =       -46.39396304 eV

  energy without entropy =      -46.39454283  energy(sigma->0) =      -46.39415630


--------------------------------------------------------------------------------------------------------




----------------------------------------- Iteration    1(  27)  ---------------------------------------


    POTLOK:  cpu time    0.51: real time    0.52
    SETDIJ:  cpu time    0.00: real time    0.00
    EDDIAG:  cpu time    0.08: real time    0.08
  RMM-DIIS:  cpu time    0.33: real time    0.34
    ORTHCH:  cpu time    0.00: real time    0.00
       DOS:  cpu time    0.00: real time    0.00
    CHARGE:  cpu time    0.07: real time    0.07
    MIXING:  cpu time    0.05: real time    0.05
    --------------------------------------------
      LOOP:  cpu time    1.06: real time    1.09

 eigenvalue-minimisations  :    17
 total energy-change (2. order) :-0.8463010E-05  (-0.1263035E-07)
 number of electron      20.0000052 magnetization 
 augmentation part        0.9533686 magnetization 

 Broyden mixing:
  rms(total) = 0.15105E-04    rms(broyden)= 0.15082E-04
  rms(prec ) = 0.18752E-04
  weight for this iteration     100.00

 eigenvalues of (default mixing * dielectric matrix)
  average eigenvalue GAMMA=   2.5614
  9.3266  6.8794  4.8647  3.4345  2.6272  2.5548  1.9840  1.9840  1.5424  1.1207
  1.1207  1.1527  1.1527  1.0058  0.9551  0.9551  0.8839

 Free energy of the ion-electron system (eV)
  ---------------------------------------------------
  alpha Z        PSCENC =         0.19712360
  Ewald energy   TEWEN  =       952.11215357
  -1/2 Hartree   DENC   =     -1617.95659638
  -exchange  EXHF       =         0.00000000
  -V(xc)+E(xc)   XCENC  =        72.56913059
  PAW double counting   =      1359.66570234    -1363.15336814
  entropy T*S    EENTRO =         0.00057979
  eigenvalues    EBANDS =      -251.21813664
  atomic energy  EATOM  =       801.38943977
  ---------------------------------------------------
  free energy    TOTEN  =       -46.39397150 eV

  energy without entropy =      -46.39455129  energy(sigma->0) =      -46.39416477


--------------------------------------------------------------------------------------------------------




----------------------------------------- Iteration    1(  28)  ---------------------------------------


    POTLOK:  cpu time    0.52: real time    0.52
    SETDIJ:  cpu time    0.00: real time    0.00
    EDDIAG:  cpu time    0.08: real time    0.08
  RMM-DIIS:  cpu time    0.29: real time    0.29
    ORTHCH:  cpu time    0.00: real time    0.00
       DOS:  cpu time    0.00: real time    0.00
    CHARGE:  cpu time    0.07: real time    0.07
    MIXING:  cpu time    0.05: real time    0.06
    --------------------------------------------
      LOOP:  cpu time    1.02: real time    1.05

 eigenvalue-minimisations  :    11
 total energy-change (2. order) :-0.1141190E-05  (-0.1216332E-08)
 number of electron      20.0000052 magnetization 
 augmentation part        0.9533682 magnetization 

 Broyden mixing:
  rms(total) = 0.13803E-04    rms(broyden)= 0.13800E-04
  rms(prec ) = 0.16230E-04
  weight for this iteration     100.00

 eigenvalues of (default mixing * dielectric matrix)
  average eigenvalue GAMMA=   2.6165
  9.4624  7.1015  5.2600  3.8739  2.8115  2.4970  2.4970  1.9486  1.9486  1.4589
  1.1185  1.1185  1.0784  1.0784  1.0101  0.9596  0.9596  0.9138

 Free energy of the ion-electron system (eV)
  ---------------------------------------------------
  alpha Z        PSCENC =         0.19712360
  Ewald energy   TEWEN  =       952.11215357
  -1/2 Hartree   DENC   =     -1617.95695872
  -exchange  EXHF       =         0.00000000
  -V(xc)+E(xc)   XCENC  =        72.56914148
  PAW double counting   =      1359.66362593    -1363.15128774
  entropy T*S    EENTRO =         0.00057979
  eigenvalues    EBANDS =      -251.21779032
  atomic energy  EATOM  =       801.38943977
  ---------------------------------------------------
  free energy    TOTEN  =       -46.39397265 eV

  energy without entropy =      -46.39455244  energy(sigma->0) =      -46.39416591


--------------------------------------------------------------------------------------------------------




----------------------------------------- Iteration    1(  29)  ---------------------------------------


    POTLOK:  cpu time    0.52: real time    0.52
    SETDIJ:  cpu time    0.00: real time    0.00
    EDDIAG:  cpu time    0.08: real time    0.08
  RMM-DIIS:  cpu time    0.28: real time    0.28
    ORTHCH:  cpu time    0.00: real time    0.00
       DOS:  cpu time    0.00: real time    0.00
    CHARGE:  cpu time    0.07: real time    0.07
    MIXING:  cpu time    0.06: real time    0.06
    --------------------------------------------
      LOOP:  cpu time    1.02: real time    1.05

 eigenvalue-minimisations  :    10
 total energy-change (2. order) :-0.1023180E-05  ( 0.0000000E+00)
 number of electron      20.0000052 magnetization 
 augmentation part        0.9533682 magnetization 

 Broyden mixing:
  rms(total) = 0.49682E-05    rms(broyden)= 0.49678E-05
  rms(prec ) = 0.64523E-05
  weight for this iteration     100.00

 eigenvalues of (default mixing * dielectric matrix)
  average eigenvalue GAMMA=   2.6390
  9.5383  7.2036  5.5317  4.2036  3.2458  2.5460  2.5460  2.0239  2.0239  1.6525
  1.1194  1.1194  1.3450  1.1088  1.1088  0.9919  0.9573  0.9573  0.9185

 Free energy of the ion-electron system (eV)
  ---------------------------------------------------
  alpha Z        PSCENC =         0.19712360
  Ewald energy   TEWEN  =       952.11215357
  -1/2 Hartree   DENC   =     -1617.95669189
  -exchange  EXHF       =         0.00000000
  -V(xc)+E(xc)   XCENC  =        72.56913719
  PAW double counting   =      1359.66653670    -1363.15418399
  entropy T*S    EENTRO =         0.00057979
  eigenvalues    EBANDS =      -251.21806840
  atomic energy  EATOM  =       801.38943977
  ---------------------------------------------------
  free energy    TOTEN  =       -46.39397367 eV

  energy without entropy =      -46.39455346  energy(sigma->0) =      -46.39416693


--------------------------------------------------------------------------------------------------------




----------------------------------------- Iteration    1(  30)  ---------------------------------------


    POTLOK:  cpu time    0.52: real time    0.52
    SETDIJ:  cpu time    0.00: real time    0.00
    EDDIAG:  cpu time    0.09: real time    0.09
  RMM-DIIS:  cpu time    0.28: real time    0.28
    ORTHCH:  cpu time    0.00: real time    0.00
       DOS:  cpu time    0.00: real time    0.00
    --------------------------------------------
      LOOP:  cpu time    0.90: real time    0.92

 eigenvalue-minimisations  :    10
 total energy-change (2. order) :-0.6558978E-06  ( 0.0000000E+00)
 number of electron      20.0000052 magnetization 
 augmentation part        0.9533682 magnetization 

 Free energy of the ion-electron system (eV)
  ---------------------------------------------------
  alpha Z        PSCENC =         0.19712360
  Ewald energy   TEWEN  =       952.11215357
  -1/2 Hartree   DENC   =     -1617.95622983
  -exchange  EXHF       =         0.00000000
  -V(xc)+E(xc)   XCENC  =        72.56912430
  PAW double counting   =      1359.66838593    -1363.15602819
  entropy T*S    EENTRO =         0.00057979
  eigenvalues    EBANDS =      -251.21852326
  atomic energy  EATOM  =       801.38943977
  ---------------------------------------------------
  free energy    TOTEN  =       -46.39397432 eV

  energy without entropy =      -46.39455412  energy(sigma->0) =      -46.39416759


--------------------------------------------------------------------------------------------------------




 average (electrostatic) potential at core
  the test charge radii are     0.7215  0.5201  0.6991
  (the norm of the test charge is              1.0000)
       1 -80.5241       2 -41.9433       3 -41.8105       4 -41.8025       5 -41.8054
       6 -41.8082       7 -41.9447       8 -59.4859       9 -59.4853
 
 
 
 E-fermi :  -5.8381     XC(G=0):  -0.1808     alpha+bet : -0.0551


 k-point   1 :       0.0000    0.0000    0.0000
  band No.  band energies     occupation 
      1     -25.8007      2.00000
      2     -17.7856      2.00000
      3     -15.6027      2.00000
      4     -11.7247      2.00000
      5     -11.4158      2.00000
      6     -11.3305      2.00000
      7      -9.4913      2.00000
      8      -9.0449      2.00000
      9      -7.5667      2.00000
     10      -5.8465      2.00000
     11      -0.5038      0.00000
     12       0.0304      0.00000
     13       0.1001      0.00000
     14       0.2059      0.00000
     15       0.2897      0.00000


--------------------------------------------------------------------------------------------------------


 soft charge-density along one line, spin component           1
         0         1         2         3         4         5         6         7         8         9
 total charge-density along one line
 
 pseudopotential strength for first ion, spin component:           1
 13.803 -16.923  -0.014  -0.081  -0.073   0.018   0.102   0.091
-16.923  20.778   0.018   0.104   0.093  -0.023  -0.131  -0.117
 -0.014   0.018 -10.403   0.054  -0.073  12.881  -0.072   0.098
 -0.081   0.104   0.054 -10.511   0.037  -0.072  13.027  -0.050
 -0.073   0.093  -0.073   0.037 -10.496   0.098  -0.050  13.007
  0.018  -0.023  12.881  -0.072   0.098 -15.876   0.097  -0.132
  0.102  -0.131  -0.072  13.027  -0.050   0.097 -16.073   0.067
  0.091  -0.117   0.098  -0.050  13.007  -0.132   0.067 -16.046
 total augmentation occupancy for first ion, spin component:           1
  2.896   0.533   0.040   0.234   0.210   0.017   0.100   0.090
  0.533   0.168   0.047   0.275   0.247   0.010   0.055   0.049
  0.040   0.047   2.253  -0.028   0.035   0.238  -0.072   0.097
  0.234   0.275  -0.028   2.300  -0.024  -0.072   0.383  -0.050
  0.210   0.247   0.035  -0.024   2.293   0.097  -0.049   0.363
  0.017   0.010   0.238  -0.072   0.097   0.042  -0.020   0.026
  0.100   0.055  -0.072   0.383  -0.049  -0.020   0.078  -0.017
  0.090   0.049   0.097  -0.050   0.363   0.026  -0.017   0.073


------------------------ aborting loop because EDIFF is reached ----------------------------------------


    CHARGE:  cpu time    0.07: real time    0.07
    FORLOC:  cpu time    0.02: real time    0.02
    FORNL :  cpu time    0.13: real time    0.13
    STRESS:  cpu time    0.43: real time    0.43
    FORCOR:  cpu time    0.50: real time    0.50
    FORHAR:  cpu time    0.15: real time    0.15
    MIXING:  cpu time    0.06: real time    0.06
 _________________________________
                                  
|         DFTD3 V3.0 Rev 1        |
| S.Grimme, University Bonn       |
|        November  2012           |
 _________________________________

Please cite DFT-D3 as:
S. Grimme, J. Antony, S. Ehrlich and H. Krieg,
J. Chem. Phys. 132 (2010), 154104
If used with BJ-damping cite also
S. Grimme, S. Ehrlich and L. Goerigk,
J. Comput. Chem. 32 (2011), 1456-1465
For DFT-D2 the reference is
S. Grimme, J. Comput. Chem., 27 (2006), 1787

           DFT-D V3
 DF pbe       
 parameters
 s6       :    1.0000
 s8       :    0.7220
 rs6      :    1.2170
 rs18     :    1.0000
 alpha6   :   14.0000
 alpha8   :   16.0000
 k1-k3    :   16.0000    1.3333   -4.0000
 Cutoff    /Ang:   50.2022
 CN-Cutoff /Ang:   21.1671
 Edisp /eV,au:    -0.0461 -0.00169322

 E6    /eV :    -0.0128
 E8    /eV :    -0.0461
 % E8        :100.08

 POSITION                                vdW-FORCE (eV/Ang)               C6          C8     CN


 ---------------------------------------------------------------------------------------------

   14.07759   11.48351   -3.69004      -0.01556   -0.00301   -0.01746     10.4        210.1  2.0
   12.85515   10.62227   -2.31085      -0.00312   -0.00181    0.00219      3.1         37.4  1.0
   13.90523   11.91977   -1.64632      -0.00140    0.00357    0.01052      3.1         37.4  1.0
   14.60280   10.30886   -2.03297       0.00376   -0.00672    0.00729      3.1         37.4  1.0
   16.17245   11.40988   -3.61445       0.01048   -0.00205    0.00059      3.1         37.4  1.0
   15.44166   13.00273   -3.21454       0.00610    0.00884    0.00280      3.1         37.4  1.0
   15.42038   12.40448   -4.90885       0.00215    0.00181   -0.00314      3.1         37.4  1.0
   13.85887   11.06612   -2.35164      -0.00486   -0.00285    0.00230     18.3        529.0  4.0
   15.34270   12.10392   -3.85533       0.00245    0.00221   -0.00509     18.3        528.9  4.0

  FORCE on cell =-STRESS in cart. coord.  units (eV):
  Direction    XX          YY          ZZ          XY          YZ          ZX
  --------------------------------------------------------------------------------------
  DFT-D       0.04331     0.02878     0.04568     0.01168    -0.00866    -0.00676
    FORVDW:  cpu time    0.01: real time    0.04

  FORCE on cell =-STRESS in cart. coord.  units (eV):
  Direction    XX          YY          ZZ          XY          YZ          ZX
  --------------------------------------------------------------------------------------
  Alpha Z     0.19712     0.19712     0.19712
  Ewald     370.14373   186.44213   395.52612   172.75890  -148.12414  -152.55960
  Hartree   571.67272   459.16195   587.12156   109.56672   -96.44847  -103.37668
  E(xc)     -78.28495   -78.54774   -78.24437     0.21358    -0.16337    -0.12797
  Local   -1133.37746  -849.17437 -1172.32160  -272.93162   237.61851   251.05364
  n-local   -49.12563   -50.89117   -48.86319     1.49594    -1.17103    -1.01498
  augment     6.39647     7.41736     6.22977    -0.78454     0.57046     0.37068
  Kinetic   311.19915   324.05283   309.16442   -10.21320     7.66004     5.61289
  Fock        0.00000     0.00000     0.00000     0.00000     0.00000     0.00000
  -------------------------------------------------------------------------------------
  Total      -1.13553    -1.31310    -1.14448     0.11746    -0.06667    -0.04879
  in kB      -0.22742    -0.26298    -0.22921     0.02352    -0.01335    -0.00977
  external pressure =       -0.24 kB  Pullay stress =        0.00 kB


 VOLUME and BASIS-vectors are now :
 -----------------------------------------------------------------------------
  energy-cutoff  :      400.00
  volume of cell :     8000.00
      direct lattice vectors                 reciprocal lattice vectors
    16.329931619 -8.164965809 -8.164965809     0.040824829 -0.020412415 -0.020412415
     0.000000000 14.142135624-14.142135624     0.000000000  0.035355339 -0.035355339
    11.547005384 11.547005384 11.547005384     0.028867513  0.028867513  0.028867513

  length of vectors
    20.000000000 20.000000000 20.000000000     0.050000000  0.050000000  0.050000000


 FORCES acting on ions
    electron-ion (+dipol)            ewald-force                    non-local-force                 convergence-correction
 -----------------------------------------------------------------------------------------------
   0.133E+03 0.261E+02 0.150E+03   -.163E+03 -.318E+02 -.183E+03   0.298E+02 0.572E+01 0.333E+02   -.918E-04 -.105E-04 -.102E-03
   0.641E+02 0.319E+02 -.170E+02   -.693E+02 -.342E+02 0.172E+02   0.520E+01 0.230E+01 -.219E+00   -.615E-05 -.283E-05 0.532E-06
   0.649E+01 -.417E+02 -.583E+02   -.630E+01 0.458E+02 0.618E+02   -.188E+00 -.417E+01 -.349E+01   -.278E-05 0.412E-05 0.497E-05
   -.344E+02 0.524E+02 -.354E+02   0.380E+02 -.561E+02 0.370E+02   -.361E+01 0.374E+01 -.159E+01   0.146E-05 -.662E-05 0.309E-05
   -.648E+02 0.310E+02 -.529E+01   0.689E+02 -.344E+02 0.643E+01   -.410E+01 0.339E+01 -.114E+01   0.570E-05 -.264E-05 -.199E-05
   -.222E+02 -.622E+02 -.286E+02   0.227E+02 0.667E+02 0.317E+02   -.512E+00 -.444E+01 -.311E+01   0.134E-05 0.684E-05 0.708E-06
   -.185E+02 -.251E+02 0.666E+02   0.189E+02 0.267E+02 -.720E+02   -.409E+00 -.156E+01 0.545E+01   0.544E-06 0.199E-05 -.591E-05
   0.557E+02 0.609E+02 -.148E+03   -.567E+02 -.626E+02 0.154E+03   0.960E+00 0.166E+01 -.512E+01   -.228E-04 -.125E-04 0.157E-04
   -.142E+03 -.774E+02 0.519E+02   0.147E+03 0.798E+02 -.527E+02   -.485E+01 -.241E+01 0.763E+00   0.149E-04 0.143E-04 -.226E-04
 -----------------------------------------------------------------------------------------------
   -.222E+02 -.424E+01 -.249E+02   0.000E+00 0.284E-13 0.142E-13   0.223E+02 0.423E+01 0.249E+02   -.996E-04 -.775E-05 -.108E-03
 
 
 POSITION                                       TOTAL-FORCE (eV/Angst)
 -----------------------------------------------------------------------------------
     14.07759     11.48351     -3.69004        -0.002580      0.001461     -0.001775
     12.85515     10.62227     -2.31085         0.003871     -0.003349      0.002349
     13.90523     11.91977     -1.64632         0.000020      0.002639     -0.004169
     14.60280     10.30886     -2.03297         0.006266      0.005806     -0.004649
     16.17245     11.40988     -3.61445        -0.005326     -0.003851      0.006079
     15.44166     13.00273     -3.21454        -0.003377     -0.001836      0.003363
     15.42038     12.40448     -4.90885         0.004488     -0.001109      0.003989
     13.85887     11.06612     -2.35164        -0.001262      0.000457     -0.002355
     15.34270     12.10392     -3.85533        -0.002100     -0.000218     -0.002831
 -----------------------------------------------------------------------------------
    total drift:                                0.015278     -0.006966     -0.002699


--------------------------------------------------------------------------------------------------------



  FREE ENERGIE OF THE ION-ELECTRON SYSTEM (eV)
  ---------------------------------------------------
  free  energy   TOTEN  =       -46.44004966 eV

  energy  without entropy=      -46.44062945  energy(sigma->0) =      -46.44024292
 


--------------------------------------------------------------------------------------------------------


    POTLOK:  cpu time    0.54: real time    0.54


--------------------------------------------------------------------------------------------------------


 stress matrix after NEB project (eV)
     -1.13553      0.11746     -0.04879
      0.11746     -1.31310     -0.06667
     -0.04879     -0.06667     -1.14448
  FORCES: max atom, RMS     0.009726    0.006018
  FORCE total and by dimension    0.018054    0.006266
  Stress total and by dimension    2.089190    1.313095
 Quasi-Newton relaxation of ions (Broydens 2nd method)
  g(Force)  = 0.157E-04   g(Stress)= 0.000E+00

 Reset! Starting new Quasi-Newton update for ions 


--------------------------------------------------------------------------------------------------------


  
 reached required accuracy - stopping structural energy minimisation
     LOOP+:  cpu time   34.22: real time   35.23
    4ORBIT:  cpu time    0.00: real time    0.00

 total amount of memory used by VASP on root node    60542. kBytes
========================================================================

   base      :      30000. kBytes
   nonlr-proj:        308. kBytes
   fftplans  :      10155. kBytes
   grid      :      18330. kBytes
   one-center:          3. kBytes
   wavefun   :       1746. kBytes
 
  
  
 General timing and accounting informations for this job:
 ========================================================
  
                  Total CPU time used (sec):       36.022
                            User time (sec):       34.038
                          System time (sec):        1.984
                         Elapsed time (sec):       37.765
  
                   Maximum memory used (kb):       95116.
                   Average memory used (kb):           0.
  
                          Minor page faults:       245989
                          Major page faults:           20
                 Voluntary context switches:         1292
