unknown system                          
           1
    16.329932   -8.164966   -8.164966
     0.000000   14.142136  -14.142136
    11.547005   11.547005   11.547005
   O    H    C 
   1   6   2
Direct configuration=     1
   0.41563168  0.53646574  0.63136304
   0.35515308  0.45725479  0.61102641
   0.35797272  0.47963394  0.69797822
   0.42722616  0.43634942  0.66045089
   0.50111394  0.53119005  0.69189302
   0.43060238  0.57336683  0.72832304
   0.47653069  0.61211877  0.66152834
   0.38790244  0.47438950  0.65163637
   0.45798951  0.56424472  0.68102162
