   6   6   0   0
  0.1333333E+04  0.2000000E-08  0.2000000E-08  0.2000000E-08  0.5000000E-15
  1.000000000000000E-004
  CAR 
 unknown system                          
      1.12185583    -19.71338979  301     -6.73940913      1.00000000
    -19.713  0.0000E+00  0.0000E+00
    -19.644  0.0000E+00  0.0000E+00
    -19.574  0.0000E+00  0.0000E+00
    -19.505  0.0000E+00  0.0000E+00
    -19.436  0.0000E+00  0.0000E+00
    -19.366  0.0000E+00  0.0000E+00
    -19.297  0.0000E+00  0.0000E+00
    -19.227  0.0000E+00  0.0000E+00
    -19.158  0.0000E+00  0.0000E+00
    -19.088  0.0000E+00  0.0000E+00
    -19.019  0.0000E+00  0.0000E+00
    -18.949  0.0000E+00  0.0000E+00
    -18.880 -0.3737E-56 -0.2596E-57
    -18.811 -0.5608E-09 -0.3895E-10
    -18.741  0.1441E+00  0.1001E-01
    -18.672  0.0000E+00  0.1000E-01
    -18.602  0.0000E+00  0.1000E-01
    -18.533  0.0000E+00  0.1000E-01
    -18.463  0.0000E+00  0.1000E-01
    -18.394  0.0000E+00  0.1000E-01
    -18.324  0.0000E+00  0.1000E-01
    -18.255  0.0000E+00  0.1000E-01
    -18.185  0.0000E+00  0.1000E-01
    -18.116  0.0000E+00  0.1000E-01
    -18.047  0.0000E+00  0.1000E-01
    -17.977  0.0000E+00  0.1000E-01
    -17.908  0.0000E+00  0.1000E-01
    -17.838  0.0000E+00  0.1000E-01
    -17.769  0.0000E+00  0.1000E-01
    -17.699  0.0000E+00  0.1000E-01
    -17.630  0.0000E+00  0.1000E-01
    -17.560  0.0000E+00  0.1000E-01
    -17.491  0.0000E+00  0.1000E-01
    -17.422  0.0000E+00  0.1000E-01
    -17.352  0.0000E+00  0.1000E-01
    -17.283  0.0000E+00  0.1000E-01
    -17.213  0.0000E+00  0.1000E-01
    -17.144  0.0000E+00  0.1000E-01
    -17.074  0.0000E+00  0.1000E-01
    -17.005  0.0000E+00  0.1000E-01
    -16.935  0.0000E+00  0.1000E-01
    -16.866  0.0000E+00  0.1000E-01
    -16.796  0.0000E+00  0.1000E-01
    -16.727  0.0000E+00  0.1000E-01
    -16.658  0.0000E+00  0.1000E-01
    -16.588  0.0000E+00  0.1000E-01
    -16.519  0.0000E+00  0.1000E-01
    -16.449  0.0000E+00  0.1000E-01
    -16.380  0.0000E+00  0.1000E-01
    -16.310  0.0000E+00  0.1000E-01
    -16.241  0.0000E+00  0.1000E-01
    -16.171  0.0000E+00  0.1000E-01
    -16.102  0.0000E+00  0.1000E-01
    -16.032  0.0000E+00  0.1000E-01
    -15.963  0.0000E+00  0.1000E-01
    -15.894  0.0000E+00  0.1000E-01
    -15.824  0.0000E+00  0.1000E-01
    -15.755  0.0000E+00  0.1000E-01
    -15.685  0.0000E+00  0.1000E-01
    -15.616  0.0000E+00  0.1000E-01
    -15.546  0.0000E+00  0.1000E-01
    -15.477  0.0000E+00  0.1000E-01
    -15.407  0.0000E+00  0.1000E-01
    -15.338  0.0000E+00  0.1000E-01
    -15.269  0.0000E+00  0.1000E-01
    -15.199  0.0000E+00  0.1000E-01
    -15.130  0.0000E+00  0.1000E-01
    -15.060  0.0000E+00  0.1000E-01
    -14.991  0.0000E+00  0.1000E-01
    -14.921  0.0000E+00  0.1000E-01
    -14.852  0.0000E+00  0.1000E-01
    -14.782  0.0000E+00  0.1000E-01
    -14.713  0.0000E+00  0.1000E-01
    -14.643  0.0000E+00  0.1000E-01
    -14.574  0.0000E+00  0.1000E-01
    -14.505  0.0000E+00  0.1000E-01
    -14.435  0.0000E+00  0.1000E-01
    -14.366  0.0000E+00  0.1000E-01
    -14.296 -0.5690E-49  0.1000E-01
    -14.227 -0.2044E-06  0.1000E-01
    -14.157  0.1440E+00  0.2000E-01
    -14.088  0.0000E+00  0.2000E-01
    -14.018  0.0000E+00  0.2000E-01
    -13.949  0.0000E+00  0.2000E-01
    -13.880  0.0000E+00  0.2000E-01
    -13.810  0.0000E+00  0.2000E-01
    -13.741  0.0000E+00  0.2000E-01
    -13.671  0.0000E+00  0.2000E-01
    -13.602  0.0000E+00  0.2000E-01
    -13.532  0.0000E+00  0.2000E-01
    -13.463  0.0000E+00  0.2000E-01
    -13.393  0.0000E+00  0.2000E-01
    -13.324  0.0000E+00  0.2000E-01
    -13.254  0.0000E+00  0.2000E-01
    -13.185  0.0000E+00  0.2000E-01
    -13.116  0.0000E+00  0.2000E-01
    -13.046  0.0000E+00  0.2000E-01
    -12.977  0.0000E+00  0.2000E-01
    -12.907  0.0000E+00  0.2000E-01
    -12.838  0.0000E+00  0.2000E-01
    -12.768  0.0000E+00  0.2000E-01
    -12.699  0.0000E+00  0.2000E-01
    -12.629  0.0000E+00  0.2000E-01
    -12.560  0.0000E+00  0.2000E-01
    -12.491  0.0000E+00  0.2000E-01
    -12.421  0.0000E+00  0.2000E-01
    -12.352  0.0000E+00  0.2000E-01
    -12.282  0.0000E+00  0.2000E-01
    -12.213  0.0000E+00  0.2000E-01
    -12.143  0.0000E+00  0.2000E-01
    -12.074  0.0000E+00  0.2000E-01
    -12.004  0.0000E+00  0.2000E-01
    -11.935  0.0000E+00  0.2000E-01
    -11.865  0.0000E+00  0.2000E-01
    -11.796  0.0000E+00  0.2000E-01
    -11.727  0.0000E+00  0.2000E-01
    -11.657  0.0000E+00  0.2000E-01
    -11.588  0.0000E+00  0.2000E-01
    -11.518 -0.2794E-53  0.2000E-01
    -11.449 -0.6517E-08  0.2000E-01
    -11.379  0.1440E+00  0.3000E-01
    -11.310  0.0000E+00  0.3000E-01
    -11.240  0.0000E+00  0.3000E-01
    -11.171  0.0000E+00  0.3000E-01
    -11.101  0.0000E+00  0.3000E-01
    -11.032  0.0000E+00  0.3000E-01
    -10.963  0.0000E+00  0.3000E-01
    -10.893  0.0000E+00  0.3000E-01
    -10.824  0.0000E+00  0.3000E-01
    -10.754  0.0000E+00  0.3000E-01
    -10.685  0.0000E+00  0.3000E-01
    -10.615  0.0000E+00  0.3000E-01
    -10.546  0.0000E+00  0.3000E-01
    -10.476  0.0000E+00  0.3000E-01
    -10.407  0.0000E+00  0.3000E-01
    -10.338  0.0000E+00  0.3000E-01
    -10.268 -0.4693E-58  0.3000E-01
    -10.199 -0.1040E-09  0.3000E-01
    -10.129  0.1443E+00  0.4002E-01
    -10.060  0.0000E+00  0.4000E-01
     -9.990  0.0000E+00  0.4000E-01
     -9.921  0.0000E+00  0.4000E-01
     -9.851  0.0000E+00  0.4000E-01
     -9.782  0.0000E+00  0.4000E-01
     -9.712  0.0000E+00  0.4000E-01
     -9.643  0.0000E+00  0.4000E-01
     -9.574  0.0000E+00  0.4000E-01
     -9.504  0.0000E+00  0.4000E-01
     -9.435  0.0000E+00  0.4000E-01
     -9.365  0.0000E+00  0.4000E-01
     -9.296  0.0000E+00  0.4000E-01
     -9.226  0.0000E+00  0.4000E-01
     -9.157  0.0000E+00  0.4000E-01
     -9.087  0.0000E+00  0.4000E-01
     -9.018  0.0000E+00  0.4000E-01
     -8.949  0.0000E+00  0.4000E-01
     -8.879  0.0000E+00  0.4000E-01
     -8.810  0.0000E+00  0.4000E-01
     -8.740  0.0000E+00  0.4000E-01
     -8.671  0.0000E+00  0.4000E-01
     -8.601 -0.4135E-80  0.4000E-01
     -8.532 -0.1975E-19  0.4000E-01
     -8.462  0.1075E+00  0.4747E-01
     -8.393  0.3644E-01  0.5000E-01
     -8.323  0.0000E+00  0.5000E-01
     -8.254  0.0000E+00  0.5000E-01
     -8.185  0.0000E+00  0.5000E-01
     -8.115  0.0000E+00  0.5000E-01
     -8.046  0.0000E+00  0.5000E-01
     -7.976  0.0000E+00  0.5000E-01
     -7.907  0.0000E+00  0.5000E-01
     -7.837  0.0000E+00  0.5000E-01
     -7.768  0.0000E+00  0.5000E-01
     -7.698  0.0000E+00  0.5000E-01
     -7.629  0.0000E+00  0.5000E-01
     -7.559  0.0000E+00  0.5000E-01
     -7.490  0.0000E+00  0.5000E-01
     -7.421  0.0000E+00  0.5000E-01
     -7.351  0.0000E+00  0.5000E-01
     -7.282  0.0000E+00  0.5000E-01
     -7.212  0.0000E+00  0.5000E-01
     -7.143  0.0000E+00  0.5000E-01
     -7.073  0.0000E+00  0.5000E-01
     -7.004  0.0000E+00  0.5000E-01
     -6.934  0.0000E+00  0.5000E-01
     -6.865 -0.1158E-59  0.5000E-01
     -6.796 -0.2414E-10  0.5000E-01
     -6.726  0.1446E+00  0.6004E-01
     -6.657  0.0000E+00  0.6000E-01
     -6.587  0.0000E+00  0.6000E-01
     -6.518  0.0000E+00  0.6000E-01
     -6.448  0.0000E+00  0.6000E-01
     -6.379  0.0000E+00  0.6000E-01
     -6.309  0.0000E+00  0.6000E-01
     -6.240  0.0000E+00  0.6000E-01
     -6.170  0.0000E+00  0.6000E-01
     -6.101  0.0000E+00  0.6000E-01
     -6.032  0.0000E+00  0.6000E-01
     -5.962  0.0000E+00  0.6000E-01
     -5.893  0.0000E+00  0.6000E-01
     -5.823  0.0000E+00  0.6000E-01
     -5.754  0.0000E+00  0.6000E-01
     -5.684  0.0000E+00  0.6000E-01
     -5.615  0.0000E+00  0.6000E-01
     -5.545  0.0000E+00  0.6000E-01
     -5.476  0.0000E+00  0.6000E-01
     -5.407  0.0000E+00  0.6000E-01
     -5.337  0.0000E+00  0.6000E-01
     -5.268  0.0000E+00  0.6000E-01
     -5.198  0.0000E+00  0.6000E-01
     -5.129  0.0000E+00  0.6000E-01
     -5.059  0.0000E+00  0.6000E-01
     -4.990  0.0000E+00  0.6000E-01
     -4.920  0.0000E+00  0.6000E-01
     -4.851  0.0000E+00  0.6000E-01
     -4.781  0.0000E+00  0.6000E-01
     -4.712  0.0000E+00  0.6000E-01
     -4.643  0.0000E+00  0.6000E-01
     -4.573  0.0000E+00  0.6000E-01
     -4.504  0.0000E+00  0.6000E-01
     -4.434  0.0000E+00  0.6000E-01
     -4.365  0.0000E+00  0.6000E-01
     -4.295  0.0000E+00  0.6000E-01
     -4.226  0.0000E+00  0.6000E-01
     -4.156  0.0000E+00  0.6000E-01
     -4.087  0.0000E+00  0.6000E-01
     -4.018  0.0000E+00  0.6000E-01
     -3.948  0.0000E+00  0.6000E-01
     -3.879  0.0000E+00  0.6000E-01
     -3.809  0.0000E+00  0.6000E-01
     -3.740  0.0000E+00  0.6000E-01
     -3.670  0.0000E+00  0.6000E-01
     -3.601  0.0000E+00  0.6000E-01
     -3.531  0.0000E+00  0.6000E-01
     -3.462  0.0000E+00  0.6000E-01
     -3.392  0.0000E+00  0.6000E-01
     -3.323  0.0000E+00  0.6000E-01
     -3.254  0.0000E+00  0.6000E-01
     -3.184  0.0000E+00  0.6000E-01
     -3.115  0.0000E+00  0.6000E-01
     -3.045  0.0000E+00  0.6000E-01
     -2.976  0.0000E+00  0.6000E-01
     -2.906  0.0000E+00  0.6000E-01
     -2.837  0.0000E+00  0.6000E-01
     -2.767  0.0000E+00  0.6000E-01
     -2.698  0.0000E+00  0.6000E-01
     -2.628  0.0000E+00  0.6000E-01
     -2.559  0.0000E+00  0.6000E-01
     -2.490  0.0000E+00  0.6000E-01
     -2.420  0.0000E+00  0.6000E-01
     -2.351  0.0000E+00  0.6000E-01
     -2.281  0.0000E+00  0.6000E-01
     -2.212  0.0000E+00  0.6000E-01
     -2.142  0.0000E+00  0.6000E-01
     -2.073  0.0000E+00  0.6000E-01
     -2.003  0.0000E+00  0.6000E-01
     -1.934  0.0000E+00  0.6000E-01
     -1.865  0.0000E+00  0.6000E-01
     -1.795  0.0000E+00  0.6000E-01
     -1.726  0.0000E+00  0.6000E-01
     -1.656  0.0000E+00  0.6000E-01
     -1.587  0.0000E+00  0.6000E-01
     -1.517  0.0000E+00  0.6000E-01
     -1.448  0.0000E+00  0.6000E-01
     -1.378  0.0000E+00  0.6000E-01
     -1.309  0.0000E+00  0.6000E-01
     -1.239  0.0000E+00  0.6000E-01
     -1.170 -0.2263E-38  0.6000E-01
     -1.101 -0.2201E-03  0.5998E-01
     -1.031  0.1442E+00  0.7000E-01
     -0.962  0.0000E+00  0.7000E-01
     -0.892  0.0000E+00  0.7000E-01
     -0.823  0.0000E+00  0.7000E-01
     -0.753  0.0000E+00  0.7000E-01
     -0.684  0.0000E+00  0.7000E-01
     -0.614  0.0000E+00  0.7000E-01
     -0.545  0.0000E+00  0.7000E-01
     -0.476  0.0000E+00  0.7000E-01
     -0.406 -0.9575E-31  0.7000E-01
     -0.337 -0.4339E-02  0.6970E-01
     -0.267  0.1483E+00  0.8000E-01
     -0.198  0.0000E+00  0.8000E-01
     -0.128  0.0000E+00  0.8000E-01
     -0.059  0.0000E+00  0.8000E-01
      0.011 -0.1947E-61  0.8000E-01
      0.080 -0.4642E-11  0.8000E-01
      0.150  0.1450E+00  0.9007E-01
      0.219  0.1441E+00  0.1000E+00
      0.288  0.0000E+00  0.1000E+00
      0.358  0.0000E+00  0.1000E+00
      0.427  0.0000E+00  0.1000E+00
      0.497  0.0000E+00  0.1000E+00
      0.566  0.0000E+00  0.1000E+00
      0.636  0.0000E+00  0.1000E+00
      0.705  0.0000E+00  0.1000E+00
      0.775  0.0000E+00  0.1000E+00
      0.844  0.0000E+00  0.1000E+00
      0.914  0.0000E+00  0.1000E+00
      0.983  0.0000E+00  0.1000E+00
      1.052  0.0000E+00  0.1000E+00
      1.122  0.0000E+00  0.1000E+00
