       N       E                     dE             d eps       ncg     rms          rms(c)
DAV:   1     0.538078837011E+02    0.53808E+02   -0.21463E+03    36   0.395E+02
DAV:   2    -0.201952970336E+02   -0.74003E+02   -0.73870E+02    40   0.108E+02
DAV:   3    -0.352401834208E+02   -0.15045E+02   -0.15033E+02    24   0.623E+01
DAV:   4    -0.360754237185E+02   -0.83524E+00   -0.83457E+00    32   0.166E+01
DAV:   5    -0.360791206368E+02   -0.36969E-02   -0.36968E-02    22   0.101E+00
DAV:   6    -0.360791956163E+02   -0.74979E-04   -0.74979E-04    30   0.140E-01
DAV:   7    -0.360791957860E+02   -0.16972E-06   -0.16966E-06    30   0.729E-03
DAV:   8    -0.360791957867E+02   -0.75977E-09   -0.52692E-09    30   0.386E-04
DAV:   9    -0.360791957864E+02    0.38926E-09   -0.39719E-11    30   0.277E-05
DAV:  10    -0.360791957865E+02   -0.10061E-09   -0.14211E-11    16   0.163E-06    0.977E+00
RMM:  11    -0.328061014330E+02    0.32731E+01   -0.56401E+00    20   0.138E+01    0.518E+00
RMM:  12    -0.320674347781E+02    0.73867E+00   -0.28406E+00    20   0.932E+00    0.222E+00
RMM:  13    -0.319641173575E+02    0.10332E+00   -0.20706E-01    20   0.300E+00    0.231E-01
RMM:  14    -0.319589621379E+02    0.51552E-02   -0.20588E-02    20   0.804E-01    0.177E-01
RMM:  15    -0.319563401612E+02    0.26220E-02   -0.10054E-02    20   0.530E-01    0.133E-01
RMM:  16    -0.319567074385E+02   -0.36728E-03   -0.15763E-03    20   0.261E-01    0.602E-02
RMM:  17    -0.319629310026E+02   -0.62236E-02   -0.17355E-03    20   0.192E-01    0.284E-02
RMM:  18    -0.319642586007E+02   -0.13276E-02   -0.44784E-04    21   0.965E-02    0.268E-02
RMM:  19    -0.319689236411E+02   -0.46650E-02   -0.17234E-03    20   0.222E-01    0.496E-02
RMM:  20    -0.319691841503E+02   -0.26051E-03   -0.23114E-04    21   0.767E-02    0.139E-02
RMM:  21    -0.319700772126E+02   -0.89306E-03   -0.29203E-04    20   0.914E-02    0.218E-02
RMM:  22    -0.319701044977E+02   -0.27285E-04   -0.21156E-05    20   0.259E-02    0.131E-02
RMM:  23    -0.319702628116E+02   -0.15831E-03   -0.52249E-05    20   0.398E-02    0.293E-03
RMM:  24    -0.319703054860E+02   -0.42674E-04   -0.18357E-06    15   0.971E-03    0.346E-03
RMM:  25    -0.319703485689E+02   -0.43083E-04   -0.11288E-06    14   0.623E-03    0.133E-03
RMM:  26    -0.319703572182E+02   -0.86493E-05   -0.78961E-07    14   0.567E-03    0.411E-04
RMM:  27    -0.319703628489E+02   -0.56308E-05   -0.16743E-07    13   0.325E-03    0.536E-04
RMM:  28    -0.319703641040E+02   -0.12551E-05    0.00000E+00     8   0.159E-03    0.368E-04
RMM:  29    -0.319703647719E+02   -0.66782E-06   -0.98370E-08    13   0.214E-03
   1 F= -.31982877E+02 E0= -.31983071E+02  d E =-.319829E+02
