 vasp.5.3.2 13Sep12 (build Oct  1 2014 13:46:58) complex                        
  
 executed on             LinuxIFC date 2015.11.22  18:50:12
 running on   20 total cores
 distrk:  each k-point on   20 cores,    1 groups
 distr:  one band on NCORES_PER_BAND=  20 cores,    1 groups


--------------------------------------------------------------------------------------------------------


 INCAR:
 POTCAR:    PAW_PBE C 08Apr2002                   
 POTCAR:    PAW_PBE H 15Jun2001                   

 ----------------------------------------------------------------------------- 
|                                                                             |
|           W    W    AA    RRRRR   N    N  II  N    N   GGGG   !!!           |
|           W    W   A  A   R    R  NN   N  II  NN   N  G    G  !!!           |
|           W    W  A    A  R    R  N N  N  II  N N  N  G       !!!           |
|           W WW W  AAAAAA  RRRRR   N  N N  II  N  N N  G  GGG   !            |
|           WW  WW  A    A  R   R   N   NN  II  N   NN  G    G                |
|           W    W  A    A  R    R  N    N  II  N    N   GGGG   !!!           |
|                                                                             |
|      For optimal performance we recommend that you set                      |
|        NPAR = 4 - approx SQRT( number of cores)                             |
|      (number of cores/NPAR must be integer)                                 |
|      This setting will greatly improve the performance of VASP for DFT.     |
|      The default NPAR=number of cores might be grossly inefficient          |
|      on modern multi-core architectures or massively parallel machines.     |
|      Do your own testing.                                                   |
|      Unfortunately you need to use the default for hybrid, GW and RPA       |
|      calculations.                                                          |
|                                                                             |
 ----------------------------------------------------------------------------- 

 POTCAR:    PAW_PBE C 08Apr2002                   
  local pseudopotential read in
  partial core-charges read in
  partial kinetic energy density read in
  atomic valenz-charges read in
  non local Contribution for L=           0  read in
    real space projection operators read in
  non local Contribution for L=           0  read in
    real space projection operators read in
  non local Contribution for L=           1  read in
    real space projection operators read in
  non local Contribution for L=           1  read in
    real space projection operators read in
    PAW grid and wavefunctions read in
 
   number of l-projection  operators is LMAX  =           4
   number of lm-projection operators is LMMAX =           8
 
 POTCAR:    PAW_PBE H 15Jun2001                   
  local pseudopotential read in
  atomic valenz-charges read in
  non local Contribution for L=           0  read in
    real space projection operators read in
  non local Contribution for L=           0  read in
    real space projection operators read in
  non local Contribution for L=           1  read in
    real space projection operators read in
    PAW grid and wavefunctions read in
 
   number of l-projection  operators is LMAX  =           3
   number of lm-projection operators is LMMAX =           5
 

 ----------------------------------------------------------------------------- 
|                                                                             |
|  ADVICE TO THIS USER RUNNING 'VASP/VAMP'   (HEAR YOUR MASTER'S VOICE ...):  |
|                                                                             |
|      You have a (more or less) 'small supercell' and for smaller cells      |
|      it is recommended  to use the reciprocal-space projection scheme!      |
|      The real space optimization is not  efficient for small cells and it   |
|      is also less accurate ...                                              |
|      Therefore set LREAL=.FALSE. in the  INCAR file                         |
|                                                                             |
 ----------------------------------------------------------------------------- 

 Optimization of the real space projectors (new method)

 maximal supplied QI-value         = 25.13
 optimisation between [QCUT,QGAM] = [ 10.05, 20.36] = [ 28.30,116.06] Ry 
 Optimized for a Real-space Cutoff    1.51 Angstroem

   l    n(q)    QCUT    max X(q) W(low)/X(q) W(high)/X(q)  e(spline) 
   0      9    10.053   115.676    0.19E-03    0.21E-03    0.38E-06
   0      9    10.053    87.132    0.19E-03    0.21E-03    0.38E-06
   1      9    10.053     4.429    0.87E-04    0.11E-03    0.39E-06
   1      9    10.053     2.733    0.59E-04    0.62E-04    0.43E-06
 Optimization of the real space projectors (new method)

 maximal supplied QI-value         = 34.20
 optimisation between [QCUT,QGAM] = [  9.92, 20.18] = [ 27.55,114.04] Ry 
 Optimized for a Real-space Cutoff    1.34 Angstroem

   l    n(q)    QCUT    max X(q) W(low)/X(q) W(high)/X(q)  e(spline) 
   0      8     9.919    19.460    0.16E-03    0.20E-03    0.36E-06
   0      8     9.919    12.209    0.16E-03    0.20E-03    0.35E-06
   1      8     9.919     4.655    0.19E-03    0.46E-03    0.40E-06
  PAW_PBE C 08Apr2002                   :
 energy of atom  1       EATOM= -147.1560
 kinetic energy error for atom=    0.0288 (will be added to EATOM!!)
  PAW_PBE H 15Jun2001                   :
 energy of atom  2       EATOM=  -12.4884
 kinetic energy error for atom=    0.0098 (will be added to EATOM!!)
 
 
 POSCAR: C  H                                    
  positions in direct lattice
  velocities in cartesian coordinates
 exchange correlation table for  LEXCH =        8
   RHO(1)=    0.500       N(1)  =     2000
   RHO(2)=  100.500       N(2)  =     4000

 VTST: version 3.0, (09/19/12)

 CHAIN: initializing optimizer
 
 OPT: Using VASP Conjugate-Gradient optimizer
 CHAIN: Read ICHAIN            0
 
 POSCAR: C  H                                    
  positions in direct lattice
  velocities in cartesian coordinates
 


--------------------------------------------------------------------------------------------------------


 ion  position               nearest neighbor table
   1  0.356  0.552  0.544-   4 1.09   3 1.09   2 1.33
   2  0.401  0.536  0.590-   5 1.09   6 1.09   1 1.33
   3  0.346  0.604  0.530-   1 1.09
   4  0.326  0.515  0.518-   1 1.09
   5  0.431  0.574  0.615-   2 1.09
   6  0.411  0.484  0.604-   2 1.09
 

IMPORTANT INFORMATION: All symmetrisations will be switched off!
NOSYMM: (Re-)initialisation of all symmetry stuff for point group C_1.

 
 
 KPOINTS: K-Point Grid. Created by Vassili Vorotni

Automatic generation of k-mesh.
Space group operators:
 irot       det(A)        alpha          n_x          n_y          n_z        tau_x        tau_y        tau_z
    1     1.000000     0.000001     1.000000     0.000000     0.000000     0.000000     0.000000     0.000000
 
 Subroutine IBZKPT returns following result:
 ===========================================
 
 Found      1 irreducible k-points:
 
 Following reciprocal coordinates:
            Coordinates               Weight
  0.000000  0.000000  0.000000      1.000000
 
 Following cartesian coordinates:
            Coordinates               Weight
  0.000000  0.000000  0.000000      1.000000
 


--------------------------------------------------------------------------------------------------------




 Dimension of arrays:
   k-points           NKPTS =      1   k-points in BZ     NKDIM =      1   number of bands    NBANDS=     10
   number of dos      NEDOS =    301   number of ions     NIONS =      6
   non local maximal  LDIM  =      4   non local SUM 2l+1 LMDIM =      8
   total plane-waves  NPLWV = 941192
   max r-space proj   IRMAX =   1741   max aug-charges    IRDMAX=   1074
   dimension x,y,z NGX =    98 NGY =   98 NGZ =   98
   dimension x,y,z NGXF=   168 NGYF=  168 NGZF=  168
   support grid    NGXF=   168 NGYF=  168 NGZF=  168
   ions per type =               2   4
 NGX,Y,Z   is equivalent  to a cutoff of   8.15,  8.15,  8.15 a.u.
 NGXF,Y,Z  is equivalent  to a cutoff of  13.96, 13.96, 13.96 a.u.


 I would recommend the setting:
   dimension x,y,z NGX =    98 NGY =   98 NGZ =   98
 SYSTEM =  unknown system                          
 POSCAR =  C  H                                    

 Startparameter for this run:
   NWRITE =      1    write-flag & timer
   PREC   = med       normal or accurate (medium, high low for compatibility)
   ISTART =      0    job   : 0-new  1-cont  2-samecut
   ICHARG =      2    charge: 1-file 2-atom 10-const
   ISPIN  =      1    spin polarized calculation?
   LNONCOLLINEAR =      F non collinear calculations
   LSORBIT =      F    spin-orbit coupling
   INIWAV =      1    electr: 0-lowe 1-rand  2-diag
   LASPH  =      F    aspherical Exc in radial PAW
   METAGGA=      F    non-selfconsistent MetaGGA calc.

 Electronic Relaxation 1
   ENCUT  =  400.0 eV  29.40 Ry    5.42 a.u.  32.61 32.61 32.61*2*pi/ulx,y,z
   ENINI  =  400.0     initial cutoff
   ENAUG  =  644.9 eV  augmentation charge cutoff
   NELM   =    400;   NELMIN=  2; NELMDL=-10     # of ELM steps 
   EDIFF  = 0.1E-05   stopping-criterion for ELM
   LREAL  =      T    real-space projection
   NLSPLINE    = F    spline interpolate recip. space projectors
   LCOMPAT=      F    compatible to vasp.4.4
   GGA_COMPAT  = T    GGA compatible to vasp.4.4-vasp.4.6
   LMAXPAW     = -100 max onsite density
   LMAXMIX     =    2 max onsite mixed and CHGCAR
   VOSKOWN=      1    Vosko Wilk Nusair interpolation
   ROPT   =   -0.00020  -0.00020
 Ionic relaxation
   EDIFFG = -.1E-01   stopping-criterion for IOM
   NSW    =    200    number of steps for IOM
   NBLOCK =      1;   KBLOCK =    200    inner block; outer block 
   IBRION =      2    ionic relax: 0-MD 1-quasi-New 2-CG
   NFREE  =      2    steps in history (QN), initial steepest desc. (CG)
   ISIF   =      2    stress and relaxation
   IWAVPR =     11    prediction:  0-non 1-charg 2-wave 3-comb
   ISYM   =      0    0-nonsym 1-usesym 2-fastsym
   LCORR  =      T    Harris-Foulkes like correction to forces

   POTIM  = 0.5000    time-step for ionic-motion
   TEIN   =    0.0    initial temperature
   TEBEG  =    0.0;   TEEND  =   0.0 temperature during run
   SMASS  =  -3.00    Nose mass-parameter (am)
   estimated Nose-frequenzy (Omega)   =  0.10E-29 period in steps =****** mass=  -0.914E-26a.u.
   SCALEE = 1.0000    scale energy and forces
   NPACO  =    256;   APACO  = 16.0  distance and # of slots for P.C.
   PSTRESS=    0.0 pullay stress

  Mass of Ions in am
   POMASS =  12.01  1.00
  Ionic Valenz
   ZVAL   =   4.00  1.00
  Atomic Wigner-Seitz radii
   RWIGS  =  -1.00 -1.00
  virtual crystal weights 
   VCA    =   1.00  1.00
   NELECT =      12.0000    total number of electrons
   NUPDOWN=      -1.0000    fix difference up-down

 DOS related values:
   EMIN   =  10.00;   EMAX   =-10.00  energy-range for DOS
   EFERMI =   0.00
   ISMEAR =     1;   SIGMA  =   0.01  broadening in eV -4-tet -1-fermi 0-gaus

 Electronic relaxation 2 (details)
   IALGO  =     68    algorithm
   LDIAG  =      T    sub-space diagonalisation (order eigenvalues)
   LSUBROT=      T    optimize rotation matrix (better conditioning)
   TURBO    =      0    0=normal 1=particle mesh
   IRESTART =      0    0=no restart 2=restart with 2 vectors
   NREBOOT  =      0    no. of reboots
   NMIN     =      0    reboot dimension
   EREF     =   0.00    reference energy to select bands
   IMIX   =      4    mixing-type and parameters
     AMIX     =   0.40;   BMIX     =  1.00
     AMIX_MAG =   1.60;   BMIX_MAG =  1.00
     AMIN     =   0.10
     WC   =   100.;   INIMIX=   1;  MIXPRE=   1;  MAXMIX= -45

 Intra band minimization:
   WEIMIN = 0.0010     energy-eigenvalue tresh-hold
   EBREAK =  0.25E-07  absolut break condition
   DEPER  =   0.30     relativ break condition  

   TIME   =   0.40     timestep for ELM

  volume/ion in A,a.u.               =    1333.33      8997.78
  Fermi-wavevector in a.u.,A,eV,Ry     =   0.187401  0.354137  0.477825  0.035119
  Thomas-Fermi vector in A             =   0.923081
 
 Write flags
   LWAVE  =      F    write WAVECAR
   LCHARG =      F    write CHGCAR
   LVTOT  =      F    write LOCPOT, total local potential
   LVHAR  =      F    write LOCPOT, Hartree potential only
   LELF   =      F    write electronic localiz. function (ELF)
   LORBIT =      0    0 simple, 1 ext, 2 COOP (PROOUT)


 Dipole corrections
   LMONO  =      F    monopole corrections only (constant potential shift)
   LDIPOL =      F    correct potential (dipole corrections)
   IDIPOL =      0    1-x, 2-y, 3-z, 4-all directions 
   EPSILON=  1.0000000 bulk dielectric constant

 Exchange correlation treatment:
   GGA     =    --    GGA type
   LEXCH   =     8    internal setting for exchange type
   VOSKOWN=      1    Vosko Wilk Nusair interpolation
   LHFCALC =     F    Hartree Fock is set to
   LHFONE  =     F    Hartree Fock one center treatment
   AEXX    =    0.0000 exact exchange contribution

 Linear response parameters
   LEPSILON=     F    determine dielectric tensor
   LRPA    =     F    only Hartree local field effects (RPA)
   LNABLA  =     F    use nabla operator in PAW spheres
   LVEL    =     F    velocity operator in full k-point grid
   LINTERFAST=   F  fast interpolation
   KINTER  =     0    interpolate to denser k-point grid
   CSHIFT  =0.1000    complex shift for real part using Kramers Kronig
   OMEGAMAX=  -1.0    maximum frequency
   DEG_THRESHOLD= 0.2000000E-02 threshold for treating states as degnerate
   RTIME   =    0.100 relaxation time in fs

 Orbital magnetization related:
   ORBITALMAG=     F  switch on orbital magnetization
   LCHIMAG   =     F  perturbation theory with respect to B field
   DQ        =  0.001000  dq finite difference perturbation B field



--------------------------------------------------------------------------------------------------------


 conjugate gradient relaxation of ions
   using selective dynamics as specified on POSCAR
 charge density and potential will be updated during run
 non-spin polarized calculation
 RMM-DIIS sequential band-by-band and
  variant of blocked Davidson during initial phase
 perform sub-space diagonalisation
    before iterative eigenvector-optimisation
 modified Broyden-mixing scheme, WC =      100.0
 initial mixing is a Kerker type mixing with AMIX =  0.4000 and BMIX =      1.0000
 Hartree-type preconditioning will be used
 using additional bands            4
 real space projection scheme for non local part
 use partial core corrections
 calculate Harris-corrections to forces 
   (improved forces if not selfconsistent)
 use gradient corrections 
 use of overlap-Matrix (Vanderbilt PP)
 Methfessel and Paxton  Order N= 1 SIGMA  =   0.01


--------------------------------------------------------------------------------------------------------


  energy-cutoff  :      400.00
  volume of cell :     8000.00
      direct lattice vectors                 reciprocal lattice vectors
    16.329931619 -8.164965809 -8.164965809     0.040824829 -0.020412415 -0.020412415
     0.000000000 14.142135624-14.142135624     0.000000000  0.035355339 -0.035355339
    11.547005384 11.547005384 11.547005384     0.028867513  0.028867513  0.028867513

  length of vectors
    20.000000000 20.000000000 20.000000000     0.050000000  0.050000000  0.050000000


 
 k-points in units of 2pi/SCALE and weight: K-Point Grid. Created by Vassili Vorotni
   0.00000000  0.00000000  0.00000000       1.000
 
 k-points in reciprocal lattice and weights: K-Point Grid. Created by Vassili Vorotni
   0.00000000  0.00000000  0.00000000       1.000
 
 position of ions in fractional coordinates (direct lattice) 
   0.35573993  0.55232711  0.54409285
   0.40140806  0.53582484  0.58977390
   0.34641862  0.60435584  0.53029769
   0.32570216  0.51457508  0.51848472
   0.43147760  0.57363742  0.61526135
   0.41069447  0.48382730  0.60371929
 
 position of ions in cartesian coordinates  (Angst):
  12.09185183 11.18912359 -4.43304612
  13.36508845 11.11034685 -4.04506828
  11.78034268 11.84173635 -5.25202809
  11.30563994 10.60478941 -3.94959175
  14.15042581 11.69388439 -4.53103187
  13.67776243 10.46019483 -3.22450776
 


--------------------------------------------------------------------------------------------------------


 k-point  1 :   0.0000 0.0000 0.0000  plane waves:  145165

 maximum and minimum number of plane-waves per node :      7271     7241

 maximum number of plane-waves:    145165
 maximum index in each direction: 
   IXMAX=   32   IYMAX=   32   IZMAX=   32
   IXMIN=  -32   IYMIN=  -32   IZMIN=  -32

 WARNING: aliasing errors must be expected set NGX to 130 to avoid them
 WARNING: aliasing errors must be expected set NGY to 130 to avoid them
 WARNING: aliasing errors must be expected set NGZ to 130 to avoid them
 aliasing errors are usually negligible using standard VASP settings
 and one can safely disregard these warnings

 real space projection operators:
  total allocation   :        384.91 KBytes
  max/ min on nodes  :         30.95          4.77


 parallel 3D FFT for wavefunctions:
    minimum data exchange during FFTs selected (reduces bandwidth)
 parallel 3D FFT for charge:
    minimum data exchange during FFTs selected (reduces bandwidth)


 total amount of memory used by VASP on root node    57801. kBytes
========================================================================

   base      :      30000. kBytes
   nonlr-proj:        205. kBytes
   fftplans  :      10155. kBytes
   grid      :      16274. kBytes
   one-center:          3. kBytes
   wavefun   :       1164. kBytes
 
 Broyden mixing: mesh for mixing (old mesh)
   NGX = 65   NGY = 65   NGZ = 65
  (NGX  =168   NGY  =168   NGZ  =168)
  gives a total of 274625 points

 initial charge density was supplied:
 charge density of overlapping atoms calculated
 number of electron      12.0000000 magnetization 
 keeping initial charge density in first step


--------------------------------------------------------------------------------------------------------


 Maximum index for non-local projection operator          166
 Maximum index for augmentation-charges          109 (set IRDMAX)


--------------------------------------------------------------------------------------------------------


 First call to EWALD:  gamma=   0.089
 Maximum number of real-space cells 3x 3x 3
 Maximum number of reciprocal cells 3x 3x 3

 FEWALD executed in parallel
    FEWALD:  cpu time    0.00: real time    0.00


----------------------------------------- Iteration    1(   1)  ---------------------------------------


    POTLOK:  cpu time    0.81: real time    0.81
    SETDIJ:  cpu time    0.00: real time    0.00
     EDDAV:  cpu time    0.27: real time    0.30
       DOS:  cpu time    0.00: real time    0.00
    --------------------------------------------
      LOOP:  cpu time    1.08: real time    1.12

 eigenvalue-minimisations  :    36
 total energy-change (2. order) : 0.5380788E+02  (-0.2146298E+03)
 number of electron      12.0000000 magnetization 
 augmentation part       12.0000000 magnetization 

 Free energy of the ion-electron system (eV)
  ---------------------------------------------------
  alpha Z        PSCENC =         0.07622704
  Ewald energy   TEWEN  =       382.13153834
  -1/2 Hartree   DENC   =      -596.64926046
  -exchange  EXHF       =         0.00000000
  -V(xc)+E(xc)   XCENC  =        34.47659746
  PAW double counting   =       225.58020250     -226.75452526
  entropy T*S    EENTRO =         0.00057979
  eigenvalues    EBANDS =      -109.22245411
  atomic energy  EATOM  =       344.16897840
  ---------------------------------------------------
  free energy    TOTEN  =        53.80788370 eV

  energy without entropy =       53.80730391  energy(sigma->0) =       53.80769044


--------------------------------------------------------------------------------------------------------




----------------------------------------- Iteration    1(   2)  ---------------------------------------


     EDDAV:  cpu time    0.28: real time    0.28
       DOS:  cpu time    0.00: real time    0.00
    --------------------------------------------
      LOOP:  cpu time    0.28: real time    0.32

 eigenvalue-minimisations  :    40
 total energy-change (2. order) :-0.7400318E+02  (-0.7386995E+02)
 number of electron      12.0000000 magnetization 
 augmentation part       12.0000000 magnetization 

 Free energy of the ion-electron system (eV)
  ---------------------------------------------------
  alpha Z        PSCENC =         0.07622704
  Ewald energy   TEWEN  =       382.13153834
  -1/2 Hartree   DENC   =      -596.64926046
  -exchange  EXHF       =         0.00000000
  -V(xc)+E(xc)   XCENC  =        34.47659746
  PAW double counting   =       225.58020250     -226.75452526
  entropy T*S    EENTRO =         0.00057979
  eigenvalues    EBANDS =      -183.22563485
  atomic energy  EATOM  =       344.16897840
  ---------------------------------------------------
  free energy    TOTEN  =       -20.19529703 eV

  energy without entropy =      -20.19587682  energy(sigma->0) =      -20.19549030


--------------------------------------------------------------------------------------------------------




----------------------------------------- Iteration    1(   3)  ---------------------------------------


     EDDAV:  cpu time    0.19: real time    0.19
       DOS:  cpu time    0.00: real time    0.00
    --------------------------------------------
      LOOP:  cpu time    0.19: real time    0.21

 eigenvalue-minimisations  :    24
 total energy-change (2. order) :-0.1504489E+02  (-0.1503337E+02)
 number of electron      12.0000000 magnetization 
 augmentation part       12.0000000 magnetization 

 Free energy of the ion-electron system (eV)
  ---------------------------------------------------
  alpha Z        PSCENC =         0.07622704
  Ewald energy   TEWEN  =       382.13153834
  -1/2 Hartree   DENC   =      -596.64926046
  -exchange  EXHF       =         0.00000000
  -V(xc)+E(xc)   XCENC  =        34.47659746
  PAW double counting   =       225.58020250     -226.75452526
  entropy T*S    EENTRO =         0.00057979
  eigenvalues    EBANDS =      -198.27052123
  atomic energy  EATOM  =       344.16897840
  ---------------------------------------------------
  free energy    TOTEN  =       -35.24018342 eV

  energy without entropy =      -35.24076321  energy(sigma->0) =      -35.24037668


--------------------------------------------------------------------------------------------------------




----------------------------------------- Iteration    1(   4)  ---------------------------------------


     EDDAV:  cpu time    0.23: real time    0.23
       DOS:  cpu time    0.00: real time    0.00
    --------------------------------------------
      LOOP:  cpu time    0.23: real time    0.26

 eigenvalue-minimisations  :    32
 total energy-change (2. order) :-0.8352403E+00  (-0.8345701E+00)
 number of electron      12.0000000 magnetization 
 augmentation part       12.0000000 magnetization 

 Free energy of the ion-electron system (eV)
  ---------------------------------------------------
  alpha Z        PSCENC =         0.07622704
  Ewald energy   TEWEN  =       382.13153834
  -1/2 Hartree   DENC   =      -596.64926046
  -exchange  EXHF       =         0.00000000
  -V(xc)+E(xc)   XCENC  =        34.47659746
  PAW double counting   =       225.58020250     -226.75452526
  entropy T*S    EENTRO =         0.00000000
  eigenvalues    EBANDS =      -199.10518174
  atomic energy  EATOM  =       344.16897840
  ---------------------------------------------------
  free energy    TOTEN  =       -36.07542372 eV

  energy without entropy =      -36.07542372  energy(sigma->0) =      -36.07542372


--------------------------------------------------------------------------------------------------------




----------------------------------------- Iteration    1(   5)  ---------------------------------------


     EDDAV:  cpu time    0.17: real time    0.18
       DOS:  cpu time    0.00: real time    0.00
    --------------------------------------------
      LOOP:  cpu time    0.18: real time    0.20

 eigenvalue-minimisations  :    22
 total energy-change (2. order) :-0.3696918E-02  (-0.3696807E-02)
 number of electron      12.0000000 magnetization 
 augmentation part       12.0000000 magnetization 

 Free energy of the ion-electron system (eV)
  ---------------------------------------------------
  alpha Z        PSCENC =         0.07622704
  Ewald energy   TEWEN  =       382.13153834
  -1/2 Hartree   DENC   =      -596.64926046
  -exchange  EXHF       =         0.00000000
  -V(xc)+E(xc)   XCENC  =        34.47659746
  PAW double counting   =       225.58020250     -226.75452526
  entropy T*S    EENTRO =         0.00000000
  eigenvalues    EBANDS =      -199.10887866
  atomic energy  EATOM  =       344.16897840
  ---------------------------------------------------
  free energy    TOTEN  =       -36.07912064 eV

  energy without entropy =      -36.07912064  energy(sigma->0) =      -36.07912064


--------------------------------------------------------------------------------------------------------




----------------------------------------- Iteration    1(   6)  ---------------------------------------


     EDDAV:  cpu time    0.22: real time    0.22
       DOS:  cpu time    0.00: real time    0.00
    --------------------------------------------
      LOOP:  cpu time    0.22: real time    0.24

 eigenvalue-minimisations  :    30
 total energy-change (2. order) :-0.7497948E-04  (-0.7497943E-04)
 number of electron      12.0000000 magnetization 
 augmentation part       12.0000000 magnetization 

 Free energy of the ion-electron system (eV)
  ---------------------------------------------------
  alpha Z        PSCENC =         0.07622704
  Ewald energy   TEWEN  =       382.13153834
  -1/2 Hartree   DENC   =      -596.64926046
  -exchange  EXHF       =         0.00000000
  -V(xc)+E(xc)   XCENC  =        34.47659746
  PAW double counting   =       225.58020250     -226.75452526
  entropy T*S    EENTRO =         0.00000000
  eigenvalues    EBANDS =      -199.10895364
  atomic energy  EATOM  =       344.16897840
  ---------------------------------------------------
  free energy    TOTEN  =       -36.07919562 eV

  energy without entropy =      -36.07919562  energy(sigma->0) =      -36.07919562


--------------------------------------------------------------------------------------------------------




----------------------------------------- Iteration    1(   7)  ---------------------------------------


     EDDAV:  cpu time    0.22: real time    0.22
       DOS:  cpu time    0.00: real time    0.00
    --------------------------------------------
      LOOP:  cpu time    0.22: real time    0.25

 eigenvalue-minimisations  :    30
 total energy-change (2. order) :-0.1697221E-06  (-0.1696609E-06)
 number of electron      12.0000000 magnetization 
 augmentation part       12.0000000 magnetization 

 Free energy of the ion-electron system (eV)
  ---------------------------------------------------
  alpha Z        PSCENC =         0.07622704
  Ewald energy   TEWEN  =       382.13153834
  -1/2 Hartree   DENC   =      -596.64926046
  -exchange  EXHF       =         0.00000000
  -V(xc)+E(xc)   XCENC  =        34.47659746
  PAW double counting   =       225.58020250     -226.75452526
  entropy T*S    EENTRO =         0.00000000
  eigenvalues    EBANDS =      -199.10895381
  atomic energy  EATOM  =       344.16897840
  ---------------------------------------------------
  free energy    TOTEN  =       -36.07919579 eV

  energy without entropy =      -36.07919579  energy(sigma->0) =      -36.07919579


--------------------------------------------------------------------------------------------------------




----------------------------------------- Iteration    1(   8)  ---------------------------------------


     EDDAV:  cpu time    0.22: real time    0.22
       DOS:  cpu time    0.00: real time    0.00
    --------------------------------------------
      LOOP:  cpu time    0.22: real time    0.25

 eigenvalue-minimisations  :    30
 total energy-change (2. order) :-0.7597691E-09  (-0.5269243E-09)
 number of electron      12.0000000 magnetization 
 augmentation part       12.0000000 magnetization 

 Free energy of the ion-electron system (eV)
  ---------------------------------------------------
  alpha Z        PSCENC =         0.07622704
  Ewald energy   TEWEN  =       382.13153834
  -1/2 Hartree   DENC   =      -596.64926046
  -exchange  EXHF       =         0.00000000
  -V(xc)+E(xc)   XCENC  =        34.47659746
  PAW double counting   =       225.58020250     -226.75452526
  entropy T*S    EENTRO =         0.00000000
  eigenvalues    EBANDS =      -199.10895381
  atomic energy  EATOM  =       344.16897840
  ---------------------------------------------------
  free energy    TOTEN  =       -36.07919579 eV

  energy without entropy =      -36.07919579  energy(sigma->0) =      -36.07919579


--------------------------------------------------------------------------------------------------------




----------------------------------------- Iteration    1(   9)  ---------------------------------------


     EDDAV:  cpu time    0.22: real time    0.23
       DOS:  cpu time    0.00: real time    0.00
    --------------------------------------------
      LOOP:  cpu time    0.22: real time    0.25

 eigenvalue-minimisations  :    30
 total energy-change (2. order) : 0.3892637E-09  (-0.3971934E-11)
 number of electron      12.0000000 magnetization 
 augmentation part       12.0000000 magnetization 

 Free energy of the ion-electron system (eV)
  ---------------------------------------------------
  alpha Z        PSCENC =         0.07622704
  Ewald energy   TEWEN  =       382.13153834
  -1/2 Hartree   DENC   =      -596.64926046
  -exchange  EXHF       =         0.00000000
  -V(xc)+E(xc)   XCENC  =        34.47659746
  PAW double counting   =       225.58020250     -226.75452526
  entropy T*S    EENTRO =         0.00000000
  eigenvalues    EBANDS =      -199.10895381
  atomic energy  EATOM  =       344.16897840
  ---------------------------------------------------
  free energy    TOTEN  =       -36.07919579 eV

  energy without entropy =      -36.07919579  energy(sigma->0) =      -36.07919579


--------------------------------------------------------------------------------------------------------




----------------------------------------- Iteration    1(  10)  ---------------------------------------


     EDDAV:  cpu time    0.14: real time    0.14
       DOS:  cpu time    0.00: real time    0.00
    CHARGE:  cpu time    0.02: real time    0.02
    MIXING:  cpu time    0.01: real time    0.01
    --------------------------------------------
      LOOP:  cpu time    0.17: real time    0.19

 eigenvalue-minimisations  :    16
 total energy-change (2. order) :-0.1006129E-09  (-0.1421085E-11)
 number of electron      11.9999961 magnetization 
 augmentation part        0.3185062 magnetization 

 Broyden mixing:
  rms(total) = 0.97693E+00    rms(broyden)= 0.97664E+00
  rms(prec ) = 0.10826E+01
  weight for this iteration     100.00

 Free energy of the ion-electron system (eV)
  ---------------------------------------------------
  alpha Z        PSCENC =         0.07622704
  Ewald energy   TEWEN  =       382.13153834
  -1/2 Hartree   DENC   =      -596.64926046
  -exchange  EXHF       =         0.00000000
  -V(xc)+E(xc)   XCENC  =        34.47659746
  PAW double counting   =       225.58020250     -226.75452526
  entropy T*S    EENTRO =         0.00000000
  eigenvalues    EBANDS =      -199.10895381
  atomic energy  EATOM  =       344.16897840
  ---------------------------------------------------
  free energy    TOTEN  =       -36.07919579 eV

  energy without entropy =      -36.07919579  energy(sigma->0) =      -36.07919579


--------------------------------------------------------------------------------------------------------




----------------------------------------- Iteration    1(  11)  ---------------------------------------


    POTLOK:  cpu time    0.18: real time    0.18
    SETDIJ:  cpu time    0.00: real time    0.00
    EDDIAG:  cpu time    0.03: real time    0.03
  RMM-DIIS:  cpu time    0.12: real time    0.12
    ORTHCH:  cpu time    0.00: real time    0.00
       DOS:  cpu time    0.00: real time    0.00
    CHARGE:  cpu time    0.02: real time    0.02
    MIXING:  cpu time    0.01: real time    0.01
    --------------------------------------------
      LOOP:  cpu time    0.37: real time    0.40

 eigenvalue-minimisations  :    20
 total energy-change (2. order) : 0.3273094E+01  (-0.5640130E+00)
 number of electron      11.9999962 magnetization 
 augmentation part        0.2919318 magnetization 

 Broyden mixing:
  rms(total) = 0.51836E+00    rms(broyden)= 0.51829E+00
  rms(prec ) = 0.56075E+00
  weight for this iteration     100.00

 eigenvalues of (default mixing * dielectric matrix)
  average eigenvalue GAMMA=   1.6063
  1.6063

 Free energy of the ion-electron system (eV)
  ---------------------------------------------------
  alpha Z        PSCENC =         0.07622704
  Ewald energy   TEWEN  =       382.13153834
  -1/2 Hartree   DENC   =      -623.71453721
  -exchange  EXHF       =         0.00000000
  -V(xc)+E(xc)   XCENC  =        35.95591069
  PAW double counting   =       431.98552303     -433.40866918
  entropy T*S    EENTRO =         0.00057979
  eigenvalues    EBANDS =      -170.00165233
  atomic energy  EATOM  =       344.16897840
  ---------------------------------------------------
  free energy    TOTEN  =       -32.80610143 eV

  energy without entropy =      -32.80668122  energy(sigma->0) =      -32.80629470


--------------------------------------------------------------------------------------------------------




----------------------------------------- Iteration    1(  12)  ---------------------------------------


    POTLOK:  cpu time    0.18: real time    0.18
    SETDIJ:  cpu time    0.00: real time    0.00
    EDDIAG:  cpu time    0.03: real time    0.03
  RMM-DIIS:  cpu time    0.12: real time    0.12
    ORTHCH:  cpu time    0.00: real time    0.00
       DOS:  cpu time    0.00: real time    0.00
    CHARGE:  cpu time    0.02: real time    0.03
    MIXING:  cpu time    0.01: real time    0.01
    --------------------------------------------
      LOOP:  cpu time    0.36: real time    0.40

 eigenvalue-minimisations  :    20
 total energy-change (2. order) : 0.7386667E+00  (-0.2840551E+00)
 number of electron      11.9999964 magnetization 
 augmentation part        0.2732394 magnetization 

 Broyden mixing:
  rms(total) = 0.22245E+00    rms(broyden)= 0.22236E+00
  rms(prec ) = 0.23416E+00
  weight for this iteration     100.00

 eigenvalues of (default mixing * dielectric matrix)
  average eigenvalue GAMMA=   1.9109
  1.7549  2.0668

 Free energy of the ion-electron system (eV)
  ---------------------------------------------------
  alpha Z        PSCENC =         0.07622704
  Ewald energy   TEWEN  =       382.13153834
  -1/2 Hartree   DENC   =      -644.99464683
  -exchange  EXHF       =         0.00000000
  -V(xc)+E(xc)   XCENC  =        37.30010676
  PAW double counting   =       704.99619462     -706.52447810
  entropy T*S    EENTRO =         0.00057979
  eigenvalues    EBANDS =      -149.22193479
  atomic energy  EATOM  =       344.16897840
  ---------------------------------------------------
  free energy    TOTEN  =       -32.06743478 eV

  energy without entropy =      -32.06801457  energy(sigma->0) =      -32.06762804


--------------------------------------------------------------------------------------------------------




----------------------------------------- Iteration    1(  13)  ---------------------------------------


    POTLOK:  cpu time    0.18: real time    0.18
    SETDIJ:  cpu time    0.00: real time    0.00
    EDDIAG:  cpu time    0.03: real time    0.03
  RMM-DIIS:  cpu time    0.12: real time    0.12
    ORTHCH:  cpu time    0.00: real time    0.00
       DOS:  cpu time    0.00: real time    0.00
    CHARGE:  cpu time    0.02: real time    0.02
    MIXING:  cpu time    0.01: real time    0.01
    --------------------------------------------
      LOOP:  cpu time    0.37: real time    0.39

 eigenvalue-minimisations  :    20
 total energy-change (2. order) : 0.1033174E+00  (-0.2070572E-01)
 number of electron      11.9999964 magnetization 
 augmentation part        0.2706171 magnetization 

 Broyden mixing:
  rms(total) = 0.23129E-01    rms(broyden)= 0.23096E-01
  rms(prec ) = 0.34975E-01
  weight for this iteration     100.00

 eigenvalues of (default mixing * dielectric matrix)
  average eigenvalue GAMMA=   1.6840
  1.1626  2.2424  1.6471

 Free energy of the ion-electron system (eV)
  ---------------------------------------------------
  alpha Z        PSCENC =         0.07622704
  Ewald energy   TEWEN  =       382.13153834
  -1/2 Hartree   DENC   =      -649.59753638
  -exchange  EXHF       =         0.00000000
  -V(xc)+E(xc)   XCENC  =        37.71868986
  PAW double counting   =       856.70667715     -858.17459448
  entropy T*S    EENTRO =         0.00057979
  eigenvalues    EBANDS =      -144.99467708
  atomic energy  EATOM  =       344.16897840
  ---------------------------------------------------
  free energy    TOTEN  =       -31.96411736 eV

  energy without entropy =      -31.96469715  energy(sigma->0) =      -31.96431062


--------------------------------------------------------------------------------------------------------




----------------------------------------- Iteration    1(  14)  ---------------------------------------


    POTLOK:  cpu time    0.18: real time    0.18
    SETDIJ:  cpu time    0.00: real time    0.00
    EDDIAG:  cpu time    0.03: real time    0.03
  RMM-DIIS:  cpu time    0.12: real time    0.12
    ORTHCH:  cpu time    0.00: real time    0.00
       DOS:  cpu time    0.00: real time    0.00
    CHARGE:  cpu time    0.02: real time    0.02
    MIXING:  cpu time    0.01: real time    0.01
    --------------------------------------------
      LOOP:  cpu time    0.37: real time    0.39

 eigenvalue-minimisations  :    20
 total energy-change (2. order) : 0.5155220E-02  (-0.2058789E-02)
 number of electron      11.9999964 magnetization 
 augmentation part        0.2694160 magnetization 

 Broyden mixing:
  rms(total) = 0.17715E-01    rms(broyden)= 0.17709E-01
  rms(prec ) = 0.25991E-01
  weight for this iteration     100.00

 eigenvalues of (default mixing * dielectric matrix)
  average eigenvalue GAMMA=   2.0168
  1.0068  1.5774  2.7415  2.7415

 Free energy of the ion-electron system (eV)
  ---------------------------------------------------
  alpha Z        PSCENC =         0.07622704
  Ewald energy   TEWEN  =       382.13153834
  -1/2 Hartree   DENC   =      -651.47086872
  -exchange  EXHF       =         0.00000000
  -V(xc)+E(xc)   XCENC  =        37.80588380
  PAW double counting   =       869.47716853     -870.94524726
  entropy T*S    EENTRO =         0.00057979
  eigenvalues    EBANDS =      -143.20322206
  atomic energy  EATOM  =       344.16897840
  ---------------------------------------------------
  free energy    TOTEN  =       -31.95896214 eV

  energy without entropy =      -31.95954193  energy(sigma->0) =      -31.95915540


--------------------------------------------------------------------------------------------------------




----------------------------------------- Iteration    1(  15)  ---------------------------------------


    POTLOK:  cpu time    0.18: real time    0.18
    SETDIJ:  cpu time    0.00: real time    0.00
    EDDIAG:  cpu time    0.03: real time    0.03
  RMM-DIIS:  cpu time    0.12: real time    0.12
    ORTHCH:  cpu time    0.00: real time    0.00
       DOS:  cpu time    0.00: real time    0.00
    CHARGE:  cpu time    0.02: real time    0.02
    MIXING:  cpu time    0.01: real time    0.01
    --------------------------------------------
      LOOP:  cpu time    0.37: real time    0.40

 eigenvalue-minimisations  :    20
 total energy-change (2. order) : 0.2621977E-02  (-0.1005442E-02)
 number of electron      11.9999964 magnetization 
 augmentation part        0.2687060 magnetization 

 Broyden mixing:
  rms(total) = 0.13268E-01    rms(broyden)= 0.13267E-01
  rms(prec ) = 0.16355E-01
  weight for this iteration     100.00

 eigenvalues of (default mixing * dielectric matrix)
  average eigenvalue GAMMA=   1.8317
  2.8272  0.9768  2.2720  1.5413  1.5413

 Free energy of the ion-electron system (eV)
  ---------------------------------------------------
  alpha Z        PSCENC =         0.07622704
  Ewald energy   TEWEN  =       382.13153834
  -1/2 Hartree   DENC   =      -653.74135072
  -exchange  EXHF       =         0.00000000
  -V(xc)+E(xc)   XCENC  =        37.84939147
  PAW double counting   =       854.29884680     -855.76451380
  entropy T*S    EENTRO =         0.00000000
  eigenvalues    EBANDS =      -140.97545769
  atomic energy  EATOM  =       344.16897840
  ---------------------------------------------------
  free energy    TOTEN  =       -31.95634016 eV

  energy without entropy =      -31.95634016  energy(sigma->0) =      -31.95634016


--------------------------------------------------------------------------------------------------------




----------------------------------------- Iteration    1(  16)  ---------------------------------------


    POTLOK:  cpu time    0.18: real time    0.18
    SETDIJ:  cpu time    0.00: real time    0.00
    EDDIAG:  cpu time    0.03: real time    0.03
  RMM-DIIS:  cpu time    0.12: real time    0.12
    ORTHCH:  cpu time    0.00: real time    0.00
       DOS:  cpu time    0.00: real time    0.00
    CHARGE:  cpu time    0.02: real time    0.02
    MIXING:  cpu time    0.01: real time    0.01
    --------------------------------------------
      LOOP:  cpu time    0.37: real time    0.39

 eigenvalue-minimisations  :    20
 total energy-change (2. order) :-0.3672773E-03  (-0.1576292E-03)
 number of electron      11.9999965 magnetization 
 augmentation part        0.2686486 magnetization 

 Broyden mixing:
  rms(total) = 0.60182E-02    rms(broyden)= 0.60170E-02
  rms(prec ) = 0.92643E-02
  weight for this iteration     100.00

 eigenvalues of (default mixing * dielectric matrix)
  average eigenvalue GAMMA=   2.1997
  4.6074  2.7365  2.3645  1.5485  0.9708  0.9708

 Free energy of the ion-electron system (eV)
  ---------------------------------------------------
  alpha Z        PSCENC =         0.07622704
  Ewald energy   TEWEN  =       382.13153834
  -1/2 Hartree   DENC   =      -654.06437646
  -exchange  EXHF       =         0.00000000
  -V(xc)+E(xc)   XCENC  =        37.86949938
  PAW double counting   =       861.42569267     -862.88691467
  entropy T*S    EENTRO =         0.00057979
  eigenvalues    EBANDS =      -140.67793193
  atomic energy  EATOM  =       344.16897840
  ---------------------------------------------------
  free energy    TOTEN  =       -31.95670744 eV

  energy without entropy =      -31.95728723  energy(sigma->0) =      -31.95690070


--------------------------------------------------------------------------------------------------------




----------------------------------------- Iteration    1(  17)  ---------------------------------------


    POTLOK:  cpu time    0.18: real time    0.18
    SETDIJ:  cpu time    0.00: real time    0.00
    EDDIAG:  cpu time    0.03: real time    0.03
  RMM-DIIS:  cpu time    0.12: real time    0.12
    ORTHCH:  cpu time    0.00: real time    0.00
       DOS:  cpu time    0.00: real time    0.00
    CHARGE:  cpu time    0.02: real time    0.02
    MIXING:  cpu time    0.01: real time    0.01
    --------------------------------------------
      LOOP:  cpu time    0.37: real time    0.40

 eigenvalue-minimisations  :    20
 total energy-change (2. order) :-0.6223564E-02  (-0.1735498E-03)
 number of electron      11.9999965 magnetization 
 augmentation part        0.2684920 magnetization 

 Broyden mixing:
  rms(total) = 0.28402E-02    rms(broyden)= 0.28396E-02
  rms(prec ) = 0.40537E-02
  weight for this iteration     100.00

 eigenvalues of (default mixing * dielectric matrix)
  average eigenvalue GAMMA=   2.0027
  4.6142  2.5104  2.3192  1.3801  1.3801  0.9076  0.9076

 Free energy of the ion-electron system (eV)
  ---------------------------------------------------
  alpha Z        PSCENC =         0.07622704
  Ewald energy   TEWEN  =       382.13153834
  -1/2 Hartree   DENC   =      -655.09367028
  -exchange  EXHF       =         0.00000000
  -V(xc)+E(xc)   XCENC  =        37.88667518
  PAW double counting   =       854.20227657     -855.66523505
  entropy T*S    EENTRO =         0.00057979
  eigenvalues    EBANDS =      -139.67030099
  atomic energy  EATOM  =       344.16897840
  ---------------------------------------------------
  free energy    TOTEN  =       -31.96293100 eV

  energy without entropy =      -31.96351079  energy(sigma->0) =      -31.96312427


--------------------------------------------------------------------------------------------------------




----------------------------------------- Iteration    1(  18)  ---------------------------------------


    POTLOK:  cpu time    0.18: real time    0.18
    SETDIJ:  cpu time    0.00: real time    0.00
    EDDIAG:  cpu time    0.03: real time    0.03
  RMM-DIIS:  cpu time    0.13: real time    0.13
    ORTHCH:  cpu time    0.00: real time    0.00
       DOS:  cpu time    0.00: real time    0.00
    CHARGE:  cpu time    0.02: real time    0.02
    MIXING:  cpu time    0.01: real time    0.01
    --------------------------------------------
      LOOP:  cpu time    0.38: real time    0.40

 eigenvalue-minimisations  :    21
 total energy-change (2. order) :-0.1327598E-02  (-0.4478449E-04)
 number of electron      11.9999965 magnetization 
 augmentation part        0.2683042 magnetization 

 Broyden mixing:
  rms(total) = 0.26798E-02    rms(broyden)= 0.26793E-02
  rms(prec ) = 0.37388E-02
  weight for this iteration     100.00

 eigenvalues of (default mixing * dielectric matrix)
  average eigenvalue GAMMA=   2.3314
  5.8191  3.7991  2.5588  1.9586  1.3357  1.3357  0.9882  0.8556

 Free energy of the ion-electron system (eV)
  ---------------------------------------------------
  alpha Z        PSCENC =         0.07622704
  Ewald energy   TEWEN  =       382.13153834
  -1/2 Hartree   DENC   =      -655.19646389
  -exchange  EXHF       =         0.00000000
  -V(xc)+E(xc)   XCENC  =        37.88720944
  PAW double counting   =       854.80305814     -856.26664468
  entropy T*S    EENTRO =         0.00057979
  eigenvalues    EBANDS =      -139.56874119
  atomic energy  EATOM  =       344.16897840
  ---------------------------------------------------
  free energy    TOTEN  =       -31.96425860 eV

  energy without entropy =      -31.96483839  energy(sigma->0) =      -31.96445186


--------------------------------------------------------------------------------------------------------




----------------------------------------- Iteration    1(  19)  ---------------------------------------


    POTLOK:  cpu time    0.18: real time    0.18
    SETDIJ:  cpu time    0.00: real time    0.00
    EDDIAG:  cpu time    0.03: real time    0.03
  RMM-DIIS:  cpu time    0.12: real time    0.12
    ORTHCH:  cpu time    0.00: real time    0.00
       DOS:  cpu time    0.00: real time    0.00
    CHARGE:  cpu time    0.02: real time    0.02
    MIXING:  cpu time    0.01: real time    0.01
    --------------------------------------------
      LOOP:  cpu time    0.38: real time    0.40

 eigenvalue-minimisations  :    20
 total energy-change (2. order) :-0.4665040E-02  (-0.1723371E-03)
 number of electron      11.9999965 magnetization 
 augmentation part        0.2684673 magnetization 

 Broyden mixing:
  rms(total) = 0.49616E-02    rms(broyden)= 0.49611E-02
  rms(prec ) = 0.53722E-02
  weight for this iteration     100.00

 eigenvalues of (default mixing * dielectric matrix)
  average eigenvalue GAMMA=   2.2077
  6.1275  3.8037  2.4545  2.1034  1.3932  1.3932  0.9537  0.8746  0.7654

 Free energy of the ion-electron system (eV)
  ---------------------------------------------------
  alpha Z        PSCENC =         0.07622704
  Ewald energy   TEWEN  =       382.13153834
  -1/2 Hartree   DENC   =      -655.15053524
  -exchange  EXHF       =         0.00000000
  -V(xc)+E(xc)   XCENC  =        37.87566910
  PAW double counting   =       857.70633329     -859.16699966
  entropy T*S    EENTRO =         0.00057979
  eigenvalues    EBANDS =      -139.61071471
  atomic energy  EATOM  =       344.16897840
  ---------------------------------------------------
  free energy    TOTEN  =       -31.96892364 eV

  energy without entropy =      -31.96950343  energy(sigma->0) =      -31.96911690


--------------------------------------------------------------------------------------------------------




----------------------------------------- Iteration    1(  20)  ---------------------------------------


    POTLOK:  cpu time    0.18: real time    0.19
    SETDIJ:  cpu time    0.00: real time    0.00
    EDDIAG:  cpu time    0.03: real time    0.03
  RMM-DIIS:  cpu time    0.13: real time    0.13
    ORTHCH:  cpu time    0.00: real time    0.00
       DOS:  cpu time    0.00: real time    0.00
    CHARGE:  cpu time    0.02: real time    0.02
    MIXING:  cpu time    0.01: real time    0.01
    --------------------------------------------
      LOOP:  cpu time    0.39: real time    0.41

 eigenvalue-minimisations  :    21
 total energy-change (2. order) :-0.2605091E-03  (-0.2311360E-04)
 number of electron      11.9999965 magnetization 
 augmentation part        0.2683728 magnetization 

 Broyden mixing:
  rms(total) = 0.13893E-02    rms(broyden)= 0.13892E-02
  rms(prec ) = 0.16271E-02
  weight for this iteration     100.00

 eigenvalues of (default mixing * dielectric matrix)
  average eigenvalue GAMMA=   2.4557
  6.9819  4.4001  3.1319  2.3356  2.3356  1.4944  1.0556  1.0065  1.0065  0.8085

 Free energy of the ion-electron system (eV)
  ---------------------------------------------------
  alpha Z        PSCENC =         0.07622704
  Ewald energy   TEWEN  =       382.13153834
  -1/2 Hartree   DENC   =      -655.25064366
  -exchange  EXHF       =         0.00000000
  -V(xc)+E(xc)   XCENC  =        37.87680998
  PAW double counting   =       856.57526337     -858.03742383
  entropy T*S    EENTRO =         0.00057979
  eigenvalues    EBANDS =      -139.51051358
  atomic energy  EATOM  =       344.16897840
  ---------------------------------------------------
  free energy    TOTEN  =       -31.96918415 eV

  energy without entropy =      -31.96976394  energy(sigma->0) =      -31.96937741


--------------------------------------------------------------------------------------------------------




----------------------------------------- Iteration    1(  21)  ---------------------------------------


    POTLOK:  cpu time    0.18: real time    0.18
    SETDIJ:  cpu time    0.00: real time    0.00
    EDDIAG:  cpu time    0.03: real time    0.03
  RMM-DIIS:  cpu time    0.12: real time    0.12
    ORTHCH:  cpu time    0.00: real time    0.00
       DOS:  cpu time    0.00: real time    0.00
    CHARGE:  cpu time    0.02: real time    0.02
    MIXING:  cpu time    0.01: real time    0.01
    --------------------------------------------
      LOOP:  cpu time    0.38: real time    0.40

 eigenvalue-minimisations  :    20
 total energy-change (2. order) :-0.8930623E-03  (-0.2920261E-04)
 number of electron      11.9999965 magnetization 
 augmentation part        0.2682660 magnetization 

 Broyden mixing:
  rms(total) = 0.21833E-02    rms(broyden)= 0.21827E-02
  rms(prec ) = 0.23687E-02
  weight for this iteration     100.00

 eigenvalues of (default mixing * dielectric matrix)
  average eigenvalue GAMMA=   2.3204
  7.3284  4.6916  2.7568  2.5190  1.9604  1.5009  1.2481  0.9576  0.9576  0.8022
  0.8022

 Free energy of the ion-electron system (eV)
  ---------------------------------------------------
  alpha Z        PSCENC =         0.07622704
  Ewald energy   TEWEN  =       382.13153834
  -1/2 Hartree   DENC   =      -655.34948774
  -exchange  EXHF       =         0.00000000
  -V(xc)+E(xc)   XCENC  =        37.87768219
  PAW double counting   =       855.59147854     -857.05494184
  entropy T*S    EENTRO =         0.00057979
  eigenvalues    EBANDS =      -139.41213194
  atomic energy  EATOM  =       344.16897840
  ---------------------------------------------------
  free energy    TOTEN  =       -31.97007721 eV

  energy without entropy =      -31.97065700  energy(sigma->0) =      -31.97027048


--------------------------------------------------------------------------------------------------------




----------------------------------------- Iteration    1(  22)  ---------------------------------------


    POTLOK:  cpu time    0.18: real time    0.18
    SETDIJ:  cpu time    0.00: real time    0.00
    EDDIAG:  cpu time    0.03: real time    0.03
  RMM-DIIS:  cpu time    0.12: real time    0.12
    ORTHCH:  cpu time    0.00: real time    0.00
       DOS:  cpu time    0.00: real time    0.00
    CHARGE:  cpu time    0.02: real time    0.02
    MIXING:  cpu time    0.01: real time    0.01
    --------------------------------------------
      LOOP:  cpu time    0.38: real time    0.40

 eigenvalue-minimisations  :    20
 total energy-change (2. order) :-0.2728511E-04  (-0.2115589E-05)
 number of electron      11.9999965 magnetization 
 augmentation part        0.2682695 magnetization 

 Broyden mixing:
  rms(total) = 0.13074E-02    rms(broyden)= 0.13074E-02
  rms(prec ) = 0.14314E-02
  weight for this iteration     100.00

 eigenvalues of (default mixing * dielectric matrix)
  average eigenvalue GAMMA=   2.4025
  7.8287  5.0827  3.2366  2.4796  2.1190  1.3370  1.3370  1.3162  1.3162  0.9855
  0.9855  0.8061

 Free energy of the ion-electron system (eV)
  ---------------------------------------------------
  alpha Z        PSCENC =         0.07622704
  Ewald energy   TEWEN  =       382.13153834
  -1/2 Hartree   DENC   =      -655.30501733
  -exchange  EXHF       =         0.00000000
  -V(xc)+E(xc)   XCENC  =        37.87567991
  PAW double counting   =       855.76286182     -857.22575585
  entropy T*S    EENTRO =         0.00057979
  eigenvalues    EBANDS =      -139.45519661
  atomic energy  EATOM  =       344.16897840
  ---------------------------------------------------
  free energy    TOTEN  =       -31.97010450 eV

  energy without entropy =      -31.97068429  energy(sigma->0) =      -31.97029776


--------------------------------------------------------------------------------------------------------




----------------------------------------- Iteration    1(  23)  ---------------------------------------


    POTLOK:  cpu time    0.18: real time    0.18
    SETDIJ:  cpu time    0.00: real time    0.00
    EDDIAG:  cpu time    0.03: real time    0.03
  RMM-DIIS:  cpu time    0.12: real time    0.12
    ORTHCH:  cpu time    0.00: real time    0.00
       DOS:  cpu time    0.00: real time    0.00
    CHARGE:  cpu time    0.02: real time    0.02
    MIXING:  cpu time    0.01: real time    0.02
    --------------------------------------------
      LOOP:  cpu time    0.38: real time    0.40

 eigenvalue-minimisations  :    20
 total energy-change (2. order) :-0.1583139E-03  (-0.5224861E-05)
 number of electron      11.9999965 magnetization 
 augmentation part        0.2683164 magnetization 

 Broyden mixing:
  rms(total) = 0.29350E-03    rms(broyden)= 0.29257E-03
  rms(prec ) = 0.34485E-03
  weight for this iteration     100.00

 eigenvalues of (default mixing * dielectric matrix)
  average eigenvalue GAMMA=   2.4322
  8.1041  5.5613  3.6263  2.4530  2.4530  1.7795  1.7795  0.8117  1.0507  1.0245
  1.0245  0.9755  0.9755

 Free energy of the ion-electron system (eV)
  ---------------------------------------------------
  alpha Z        PSCENC =         0.07622704
  Ewald energy   TEWEN  =       382.13153834
  -1/2 Hartree   DENC   =      -655.27814621
  -exchange  EXHF       =         0.00000000
  -V(xc)+E(xc)   XCENC  =        37.87481012
  PAW double counting   =       855.90977814     -857.37214674
  entropy T*S    EENTRO =         0.00057979
  eigenvalues    EBANDS =      -139.48188169
  atomic energy  EATOM  =       344.16897840
  ---------------------------------------------------
  free energy    TOTEN  =       -31.97026281 eV

  energy without entropy =      -31.97084260  energy(sigma->0) =      -31.97045608


--------------------------------------------------------------------------------------------------------




----------------------------------------- Iteration    1(  24)  ---------------------------------------


    POTLOK:  cpu time    0.18: real time    0.18
    SETDIJ:  cpu time    0.00: real time    0.00
    EDDIAG:  cpu time    0.03: real time    0.03
  RMM-DIIS:  cpu time    0.10: real time    0.10
    ORTHCH:  cpu time    0.00: real time    0.00
       DOS:  cpu time    0.00: real time    0.00
    CHARGE:  cpu time    0.02: real time    0.02
    MIXING:  cpu time    0.02: real time    0.02
    --------------------------------------------
      LOOP:  cpu time    0.35: real time    0.37

 eigenvalue-minimisations  :    15
 total energy-change (2. order) :-0.4267449E-04  (-0.1835653E-06)
 number of electron      11.9999965 magnetization 
 augmentation part        0.2683198 magnetization 

 Broyden mixing:
  rms(total) = 0.34616E-03    rms(broyden)= 0.34610E-03
  rms(prec ) = 0.38283E-03
  weight for this iteration     100.00

 eigenvalues of (default mixing * dielectric matrix)
  average eigenvalue GAMMA=   2.5394
  8.6273  5.9912  4.0825  3.1087  2.3407  1.9288  1.7147  1.7147  1.1490  1.1490
  0.8152  0.9748  0.9748  0.9796

 Free energy of the ion-electron system (eV)
  ---------------------------------------------------
  alpha Z        PSCENC =         0.07622704
  Ewald energy   TEWEN  =       382.13153834
  -1/2 Hartree   DENC   =      -655.29114858
  -exchange  EXHF       =         0.00000000
  -V(xc)+E(xc)   XCENC  =        37.87532142
  PAW double counting   =       855.98219727     -857.44458354
  entropy T*S    EENTRO =         0.00057979
  eigenvalues    EBANDS =      -139.46941564
  atomic energy  EATOM  =       344.16897840
  ---------------------------------------------------
  free energy    TOTEN  =       -31.97030549 eV

  energy without entropy =      -31.97088528  energy(sigma->0) =      -31.97049875


--------------------------------------------------------------------------------------------------------




----------------------------------------- Iteration    1(  25)  ---------------------------------------


    POTLOK:  cpu time    0.18: real time    0.18
    SETDIJ:  cpu time    0.00: real time    0.00
    EDDIAG:  cpu time    0.03: real time    0.03
  RMM-DIIS:  cpu time    0.09: real time    0.09
    ORTHCH:  cpu time    0.00: real time    0.00
       DOS:  cpu time    0.00: real time    0.00
    CHARGE:  cpu time    0.02: real time    0.02
    MIXING:  cpu time    0.02: real time    0.02
    --------------------------------------------
      LOOP:  cpu time    0.35: real time    0.37

 eigenvalue-minimisations  :    14
 total energy-change (2. order) :-0.4308283E-04  (-0.1128767E-06)
 number of electron      11.9999965 magnetization 
 augmentation part        0.2683176 magnetization 

 Broyden mixing:
  rms(total) = 0.13324E-03    rms(broyden)= 0.13323E-03
  rms(prec ) = 0.14625E-03
  weight for this iteration     100.00

 eigenvalues of (default mixing * dielectric matrix)
  average eigenvalue GAMMA=   2.5516
  9.0276  6.2390  4.6289  3.0114  2.5228  2.3519  1.7318  1.7318  0.8128  1.0920
  1.0920  0.9598  1.0443  1.0143  1.0143

 Free energy of the ion-electron system (eV)
  ---------------------------------------------------
  alpha Z        PSCENC =         0.07622704
  Ewald energy   TEWEN  =       382.13153834
  -1/2 Hartree   DENC   =      -655.29939299
  -exchange  EXHF       =         0.00000000
  -V(xc)+E(xc)   XCENC  =        37.87533053
  PAW double counting   =       855.93041175     -857.39289307
  entropy T*S    EENTRO =         0.00057979
  eigenvalues    EBANDS =      -139.46112836
  atomic energy  EATOM  =       344.16897840
  ---------------------------------------------------
  free energy    TOTEN  =       -31.97034857 eV

  energy without entropy =      -31.97092836  energy(sigma->0) =      -31.97054183


--------------------------------------------------------------------------------------------------------




----------------------------------------- Iteration    1(  26)  ---------------------------------------


    POTLOK:  cpu time    0.19: real time    0.19
    SETDIJ:  cpu time    0.00: real time    0.00
    EDDIAG:  cpu time    0.03: real time    0.03
  RMM-DIIS:  cpu time    0.09: real time    0.09
    ORTHCH:  cpu time    0.00: real time    0.00
       DOS:  cpu time    0.00: real time    0.00
    CHARGE:  cpu time    0.02: real time    0.02
    MIXING:  cpu time    0.02: real time    0.02
    --------------------------------------------
      LOOP:  cpu time    0.35: real time    0.37

 eigenvalue-minimisations  :    14
 total energy-change (2. order) :-0.8649280E-05  (-0.7896074E-07)
 number of electron      11.9999965 magnetization 
 augmentation part        0.2683142 magnetization 

 Broyden mixing:
  rms(total) = 0.41144E-04    rms(broyden)= 0.41095E-04
  rms(prec ) = 0.47824E-04
  weight for this iteration     100.00

 eigenvalues of (default mixing * dielectric matrix)
  average eigenvalue GAMMA=   2.6008
  9.2767  6.6211  4.9171  3.3965  2.7251  2.1895  2.0889  1.6995  1.6995  1.1417
  1.1417  0.8136  0.9857  0.9857  0.9651  0.9651

 Free energy of the ion-electron system (eV)
  ---------------------------------------------------
  alpha Z        PSCENC =         0.07622704
  Ewald energy   TEWEN  =       382.13153834
  -1/2 Hartree   DENC   =      -655.30439597
  -exchange  EXHF       =         0.00000000
  -V(xc)+E(xc)   XCENC  =        37.87541616
  PAW double counting   =       855.93845064     -857.40096797
  entropy T*S    EENTRO =         0.00057979
  eigenvalues    EBANDS =      -139.45618365
  atomic energy  EATOM  =       344.16897840
  ---------------------------------------------------
  free energy    TOTEN  =       -31.97035722 eV

  energy without entropy =      -31.97093701  energy(sigma->0) =      -31.97055048


--------------------------------------------------------------------------------------------------------




----------------------------------------- Iteration    1(  27)  ---------------------------------------


    POTLOK:  cpu time    0.19: real time    0.19
    SETDIJ:  cpu time    0.00: real time    0.00
    EDDIAG:  cpu time    0.03: real time    0.03
  RMM-DIIS:  cpu time    0.09: real time    0.09
    ORTHCH:  cpu time    0.00: real time    0.00
       DOS:  cpu time    0.00: real time    0.00
    CHARGE:  cpu time    0.02: real time    0.02
    MIXING:  cpu time    0.02: real time    0.02
    --------------------------------------------
      LOOP:  cpu time    0.35: real time    0.38

 eigenvalue-minimisations  :    13
 total energy-change (2. order) :-0.5630780E-05  (-0.1674300E-07)
 number of electron      11.9999965 magnetization 
 augmentation part        0.2683112 magnetization 

 Broyden mixing:
  rms(total) = 0.53572E-04    rms(broyden)= 0.53554E-04
  rms(prec ) = 0.59412E-04
  weight for this iteration     100.00

 eigenvalues of (default mixing * dielectric matrix)
  average eigenvalue GAMMA=   2.5887
  9.4239  6.8960  4.9412  3.8289  2.7173  2.5570  2.2273  1.7227  1.7227  1.1241
  1.1241  0.9997  0.9997  0.8155  1.0199  0.9438  0.9438

 Free energy of the ion-electron system (eV)
  ---------------------------------------------------
  alpha Z        PSCENC =         0.07622704
  Ewald energy   TEWEN  =       382.13153834
  -1/2 Hartree   DENC   =      -655.30430397
  -exchange  EXHF       =         0.00000000
  -V(xc)+E(xc)   XCENC  =        37.87541150
  PAW double counting   =       855.94072459     -857.40326345
  entropy T*S    EENTRO =         0.00057979
  eigenvalues    EBANDS =      -139.45625510
  atomic energy  EATOM  =       344.16897840
  ---------------------------------------------------
  free energy    TOTEN  =       -31.97036285 eV

  energy without entropy =      -31.97094264  energy(sigma->0) =      -31.97055611


--------------------------------------------------------------------------------------------------------




----------------------------------------- Iteration    1(  28)  ---------------------------------------


    POTLOK:  cpu time    0.19: real time    0.19
    SETDIJ:  cpu time    0.00: real time    0.00
    EDDIAG:  cpu time    0.03: real time    0.03
  RMM-DIIS:  cpu time    0.07: real time    0.08
    ORTHCH:  cpu time    0.00: real time    0.00
       DOS:  cpu time    0.00: real time    0.00
    CHARGE:  cpu time    0.02: real time    0.02
    MIXING:  cpu time    0.02: real time    0.02
    --------------------------------------------
      LOOP:  cpu time    0.34: real time    0.36

 eigenvalue-minimisations  :     8
 total energy-change (2. order) :-0.1255106E-05  ( 0.0000000E+00)
 number of electron      11.9999965 magnetization 
 augmentation part        0.2683113 magnetization 

 Broyden mixing:
  rms(total) = 0.36818E-04    rms(broyden)= 0.36817E-04
  rms(prec ) = 0.40240E-04
  weight for this iteration     100.00

 eigenvalues of (default mixing * dielectric matrix)
  average eigenvalue GAMMA=   2.6029
  9.5306  7.0558  5.1076  4.1445  2.9743  2.3598  2.3598  1.8310  1.8310  1.6636
  1.1178  1.1178  0.8136  1.0699  0.9917  0.9917  0.9453  0.9453

 Free energy of the ion-electron system (eV)
  ---------------------------------------------------
  alpha Z        PSCENC =         0.07622704
  Ewald energy   TEWEN  =       382.13153834
  -1/2 Hartree   DENC   =      -655.30251899
  -exchange  EXHF       =         0.00000000
  -V(xc)+E(xc)   XCENC  =        37.87533837
  PAW double counting   =       855.92734992     -857.38987580
  entropy T*S    EENTRO =         0.00057979
  eigenvalues    EBANDS =      -139.45798118
  atomic energy  EATOM  =       344.16897840
  ---------------------------------------------------
  free energy    TOTEN  =       -31.97036410 eV

  energy without entropy =      -31.97094389  energy(sigma->0) =      -31.97055737


--------------------------------------------------------------------------------------------------------




----------------------------------------- Iteration    1(  29)  ---------------------------------------


    POTLOK:  cpu time    0.18: real time    0.18
    SETDIJ:  cpu time    0.00: real time    0.00
    EDDIAG:  cpu time    0.03: real time    0.03
  RMM-DIIS:  cpu time    0.09: real time    0.09
    ORTHCH:  cpu time    0.00: real time    0.00
       DOS:  cpu time    0.00: real time    0.00
    --------------------------------------------
      LOOP:  cpu time    0.31: real time    0.33

 eigenvalue-minimisations  :    13
 total energy-change (2. order) :-0.6678162E-06  (-0.9837020E-08)
 number of electron      11.9999965 magnetization 
 augmentation part        0.2683113 magnetization 

 Free energy of the ion-electron system (eV)
  ---------------------------------------------------
  alpha Z        PSCENC =         0.07622704
  Ewald energy   TEWEN  =       382.13153834
  -1/2 Hartree   DENC   =      -655.30098393
  -exchange  EXHF       =         0.00000000
  -V(xc)+E(xc)   XCENC  =        37.87529371
  PAW double counting   =       855.93362937     -857.39612726
  entropy T*S    EENTRO =         0.00057979
  eigenvalues    EBANDS =      -139.45950024
  atomic energy  EATOM  =       344.16897840
  ---------------------------------------------------
  free energy    TOTEN  =       -31.97036477 eV

  energy without entropy =      -31.97094456  energy(sigma->0) =      -31.97055804


--------------------------------------------------------------------------------------------------------




 average (electrostatic) potential at core
  the test charge radii are     0.6991  0.5201
  (the norm of the test charge is              1.0000)
       1 -58.6509       2 -58.6508       3 -42.0047       4 -42.0064       5 -42.0048
       6 -42.0048
 
 
 
 E-fermi :  -6.7394     XC(G=0):  -0.1424     alpha+bet : -0.0389


 k-point   1 :       0.0000    0.0000    0.0000
  band No.  band energies     occupation 
      1     -18.7663      2.00000
      2     -14.1901      2.00000
      3     -11.4075      2.00000
      4     -10.1525      2.00000
      5      -8.4654      2.00000
      6      -6.7478      2.00000
      7      -1.0762      0.00000
      8      -0.3222      0.00000
      9       0.1295      0.00000
     10       0.1748      0.00000


--------------------------------------------------------------------------------------------------------


 soft charge-density along one line, spin component           1
         0         1         2         3         4         5         6         7         8         9
 total charge-density along one line
 
 pseudopotential strength for first ion, spin component:           1
 10.245  13.625  -0.000   0.000   0.000   0.000  -0.000  -0.001
 13.625  18.120  -0.000   0.000   0.000   0.000  -0.001  -0.002
 -0.000  -0.000  -4.369   0.002  -0.000   8.549  -0.002  -0.000
  0.000   0.000   0.002  -4.369  -0.002  -0.002   8.550   0.003
  0.000   0.000  -0.000  -0.002  -4.375  -0.000   0.003   8.558
  0.000   0.000   8.549  -0.002  -0.000 -18.867  -0.001   0.001
 -0.000  -0.001  -0.002   8.550   0.003  -0.001 -18.868  -0.003
 -0.001  -0.002  -0.000   0.003   8.558   0.001  -0.003 -18.876
 total augmentation occupancy for first ion, spin component:           1
  7.617  -3.234  -0.026   0.121   0.400  -0.004   0.021   0.068
 -3.234   1.398   0.016  -0.072  -0.240   0.002  -0.012  -0.039
 -0.026   0.016   1.376  -0.271   0.050   0.102  -0.038   0.007
  0.121  -0.072  -0.271   1.467   0.119  -0.038   0.114   0.017
  0.400  -0.240   0.050   0.119   1.880   0.007   0.017   0.174
 -0.004   0.002   0.102  -0.038   0.007   0.008  -0.004   0.001
  0.021  -0.012  -0.038   0.114   0.017  -0.004   0.009   0.002
  0.068  -0.039   0.007   0.017   0.174   0.001   0.002   0.017


------------------------ aborting loop because EDIFF is reached ----------------------------------------


    CHARGE:  cpu time    0.02: real time    0.02
    FORLOC:  cpu time    0.01: real time    0.01
    FORNL :  cpu time    0.05: real time    0.05
    STRESS:  cpu time    0.16: real time    0.16
    FORCOR:  cpu time    0.20: real time    0.20
    FORHAR:  cpu time    0.06: real time    0.06
    MIXING:  cpu time    0.02: real time    0.02
 _________________________________
                                  
|         DFTD3 V3.0 Rev 1        |
| S.Grimme, University Bonn       |
|        November  2012           |
 _________________________________

Please cite DFT-D3 as:
S. Grimme, J. Antony, S. Ehrlich and H. Krieg,
J. Chem. Phys. 132 (2010), 154104
If used with BJ-damping cite also
S. Grimme, S. Ehrlich and L. Goerigk,
J. Comput. Chem. 32 (2011), 1456-1465
For DFT-D2 the reference is
S. Grimme, J. Comput. Chem., 27 (2006), 1787

           DFT-D V3
 DF pbe       
 parameters
 s6       :    1.0000
 s8       :    0.7220
 rs6      :    1.2170
 rs18     :    1.0000
 alpha6   :   14.0000
 alpha8   :   16.0000
 k1-k3    :   16.0000    1.3333   -4.0000
 Cutoff    /Ang:   50.2022
 CN-Cutoff /Ang:   21.1671
 Edisp /eV,au:    -0.0125 -0.00045982

 E6    /eV :    -0.0039
 E8    /eV :    -0.0120
 % E8        : 95.61

 POSITION                                vdW-FORCE (eV/Ang)               C6          C8     CN


 ---------------------------------------------------------------------------------------------

   12.09185   11.18912   -4.43305      -0.00556    0.00034   -0.00170     25.7        742.7  3.0
   13.36509   11.11035   -4.04507       0.00556   -0.00034    0.00169     25.7        742.7  3.0
   11.78034   11.84174   -5.25203      -0.00173    0.00186   -0.00253      3.1         37.4  1.0
   11.30564   10.60479   -3.94959      -0.00301   -0.00157    0.00108      3.1         37.4  1.0
   14.15043   11.69388   -4.53103       0.00304    0.00156   -0.00108      3.1         37.4  1.0
   13.67776   10.46019   -3.22451       0.00170   -0.00185    0.00253      3.1         37.4  1.0

  FORCE on cell =-STRESS in cart. coord.  units (eV):
  Direction    XX          YY          ZZ          XY          YZ          ZX
  --------------------------------------------------------------------------------------
  DFT-D       0.01890     0.00427     0.00638     0.00049    -0.00480     0.00387
    FORVDW:  cpu time    0.01: real time    0.03

  FORCE on cell =-STRESS in cart. coord.  units (eV):
  Direction    XX          YY          ZZ          XY          YZ          ZX
  --------------------------------------------------------------------------------------
  Alpha Z     0.07623     0.07623     0.07623
  Ewald     269.92993    37.61167    74.58986    13.62291   -95.10637    58.83609
  Hartree   288.75722   175.43358   191.11150     2.57869   -33.12114    30.44128
  E(xc)     -41.37425   -42.03319   -41.88918     0.10610    -0.48870     0.13771
  Local    -653.88129  -320.09254  -369.80583   -13.67745   117.45001   -87.07141
  n-local   -18.71030   -17.99606   -18.22810    -0.24851     0.95920    -0.09136
  augment    -0.24280    -0.19110    -0.20578    -0.01375     0.05724    -0.00906
  Kinetic   154.96395   166.66090   163.82824    -2.35774    10.21969    -2.23971
  Fock        0.00000     0.00000     0.00000     0.00000     0.00000     0.00000
  -------------------------------------------------------------------------------------
  Total      -0.46243    -0.52625    -0.51669     0.01073    -0.03488     0.00741
  in kB      -0.09261    -0.10539    -0.10348     0.00215    -0.00699     0.00148
  external pressure =       -0.10 kB  Pullay stress =        0.00 kB


 VOLUME and BASIS-vectors are now :
 -----------------------------------------------------------------------------
  energy-cutoff  :      400.00
  volume of cell :     8000.00
      direct lattice vectors                 reciprocal lattice vectors
    16.329931619 -8.164965809 -8.164965809     0.040824829 -0.020412415 -0.020412415
     0.000000000 14.142135624-14.142135624     0.000000000  0.035355339 -0.035355339
    11.547005384 11.547005384 11.547005384     0.028867513  0.028867513  0.028867513

  length of vectors
    20.000000000 20.000000000 20.000000000     0.050000000  0.050000000  0.050000000


 FORCES acting on ions
    electron-ion (+dipol)            ewald-force                    non-local-force                 convergence-correction
 -----------------------------------------------------------------------------------------------
   0.964E+02 -.595E+01 0.294E+02   -.970E+02 0.598E+01 -.295E+02   0.550E+00 -.365E-01 0.163E+00   -.319E-03 0.192E-04 -.973E-04
   -.964E+02 0.604E+01 -.294E+02   0.970E+02 -.608E+01 0.296E+02   -.550E+00 0.399E-01 -.164E+00   0.319E-03 -.188E-04 0.964E-04
   0.237E+02 -.334E+02 0.437E+02   -.253E+02 0.368E+02 -.479E+02   0.161E+01 -.340E+01 0.427E+01   -.546E-04 0.443E-04 -.637E-04
   0.476E+02 0.289E+02 -.219E+02   -.517E+02 -.320E+02 0.244E+02   0.409E+01 0.305E+01 -.253E+01   -.858E-04 -.359E-04 0.209E-04
   -.476E+02 -.289E+02 0.220E+02   0.516E+02 0.319E+02 -.246E+02   -.409E+01 -.305E+01 0.254E+01   0.857E-04 0.360E-04 -.212E-04
   -.237E+02 0.332E+02 -.437E+02   0.254E+02 -.366E+02 0.480E+02   -.162E+01 0.339E+01 -.428E+01   0.546E-04 -.442E-04 0.638E-04
 -----------------------------------------------------------------------------------------------
   -.156E-02 0.249E-02 0.536E-03   -.497E-13 0.142E-13 -.711E-14   -.139E-02 -.835E-02 0.535E-02   -.439E-06 0.548E-06 -.996E-06
 
 
 POSITION                                       TOTAL-FORCE (eV/Angst)
 -----------------------------------------------------------------------------------
     12.09185     11.18912     -4.43305         0.000656      0.000995     -0.004024
     13.36509     11.11035     -4.04507         0.000776      0.001163      0.006038
     11.78034     11.84174     -5.25203         0.002738     -0.002840     -0.002568
     11.30564     10.60479     -3.94959         0.000681     -0.000498      0.007532
     14.15043     11.69388     -4.53103         0.001267      0.005247     -0.000512
     13.67776     10.46019     -3.22451        -0.006117     -0.004066     -0.006466
 -----------------------------------------------------------------------------------
    total drift:                               -0.002949     -0.005865      0.005883


--------------------------------------------------------------------------------------------------------



  FREE ENERGIE OF THE ION-ELECTRON SYSTEM (eV)
  ---------------------------------------------------
  free  energy   TOTEN  =       -31.98287725 eV

  energy  without entropy=      -31.98345704  energy(sigma->0) =      -31.98307051
 


--------------------------------------------------------------------------------------------------------


    POTLOK:  cpu time    0.19: real time    0.19


--------------------------------------------------------------------------------------------------------


 stress matrix after NEB project (eV)
     -0.46243      0.01073      0.00741
      0.01073     -0.52625     -0.03488
      0.00741     -0.03488     -0.51669
  FORCES: max atom, RMS     0.009785    0.006593
  FORCE total and by dimension    0.016149    0.007532
  Stress total and by dimension    0.872080    0.526254


--------------------------------------------------------------------------------------------------------


  
 reached required accuracy - stopping structural energy minimisation
     LOOP+:  cpu time   10.68: real time   11.44
    4ORBIT:  cpu time    0.00: real time    0.00

 total amount of memory used by VASP on root node    57801. kBytes
========================================================================

   base      :      30000. kBytes
   nonlr-proj:        205. kBytes
   fftplans  :      10155. kBytes
   grid      :      16274. kBytes
   one-center:          3. kBytes
   wavefun   :       1164. kBytes
 
  
  
 General timing and accounting informations for this job:
 ========================================================
  
                  Total CPU time used (sec):       11.876
                            User time (sec):       11.146
                          System time (sec):        0.730
                         Elapsed time (sec):       13.090
  
                   Maximum memory used (kb):       97728.
                   Average memory used (kb):           0.
  
                          Minor page faults:       165002
                          Major page faults:           17
                 Voluntary context switches:         1526
